299
Lattice="14.3 0.0 0.0 0.0 14.3 0.0 0.0 0.0 14.3" Properties=species:S:1:pos:R:3:initial_charges:R:1:rPBED3_forces:R:3:MACE_forces:R:3 rPBED3_energy=-48476.08660517978 MACE_energy=-48475.17847529954 pbc="T T T"
Ca       2.83038417       6.55396573       4.43196457       0.00000000      -1.36315580       0.57259912      -1.27557323      -1.46406751       0.58080350      -1.43554522
C        4.74769258       4.13102246       5.66536121       0.00000000      -1.99217573      -0.65180093      -1.46142543      -2.10309326      -0.61935174      -1.32577235
O        5.78093252       4.03364461       6.33006802       0.00000000       4.22689289       0.21241273       1.98092149       4.08240032       0.33452603       2.07405790
O        4.47145495       3.18042590       4.86017102       0.00000000      -0.81041743      -1.54252934      -2.20787381      -0.72030598      -1.55371338      -2.12172839
O        3.92391363       5.05451018       5.83560707       0.00000000      -0.55946129       0.22417964       0.82316754      -0.69808824       0.04715970       0.85536831
O       10.03400477       3.41411841       8.24707837       0.00000000       1.04273616       1.41619715       1.33995571       1.10813347       1.42991839       1.46207831
H       10.62174026       4.26696169       8.13492877       0.00000000      -0.97989428      -1.62015815       0.47839183      -1.00581381      -1.67783158       0.48155017
H       10.07061642       3.19698314       9.29556257       0.00000000      -0.02763885       0.54524206      -1.72564127      -0.05716986       0.52964794      -1.80712874
O        6.37136989      11.67523144       1.74182319       0.00000000      -0.56494237       0.67171104      -2.46368471      -0.48954561       0.53016645      -2.50736701
H        6.61145107      11.70640640       0.71131617       0.00000000      -0.66410571       0.04281607       2.76485450      -0.73193655       0.07007612       2.90935275
H        5.44804087      12.17069312       1.86277405       0.00000000       0.92293509      -0.69079839      -0.53686078       0.87885626      -0.58434481      -0.57108807
O        2.99561693      13.32874216       4.87516553       0.00000000      -0.68503346       0.73323085      -0.66452892      -0.65776118       0.52179964      -0.64110861
H        2.02070763      13.65965915       4.79740099       0.00000000       1.68421205      -0.04943769      -0.26848901       1.60310879      -0.05207064      -0.21994495
H        3.57861432      13.89568708       4.25703583       0.00000000      -1.28278311      -0.35772892       1.28487085      -1.18264630      -0.35816262       1.32165412
O        3.26630948       7.24381976       6.53068009       0.00000000       1.02767670       0.73186714       2.68333870       1.06822200       0.71410615       2.57898597
H        3.87848946       8.00238945       6.87407354       0.00000000      -1.26856440      -1.48608128      -0.47523812      -1.24000000      -1.52972864      -0.45613574
H        3.44417789       6.37565478       7.07866463       0.00000000      -0.23047988       2.77765757      -1.02883112      -0.16811011       2.65012821      -0.92346885
O       11.22179778       8.62538503       8.85538973       0.00000000      -1.67683144       0.26916675       0.46835733      -1.58232531       0.29632748       0.46303337
H       11.13446695       9.22285093       8.01702570       0.00000000      -0.24282220      -0.39147568       1.01824795      -0.27381329      -0.27682306       0.90952176
H       10.28754574       8.71583698       9.37322224       0.00000000       1.75576174       0.19901368      -1.34340767       1.70362541       0.21293676      -1.25240177
O       10.58818309      13.81039870       6.10752005       0.00000000       0.04109754      -0.68675713       0.58896007       0.04553886      -0.79157620       0.46610732
H       11.57915913      13.77897426       6.20476017       0.00000000      -0.29814257       0.17760154       0.12848215      -0.19581013       0.24178199       0.10971113
H       10.18627544      13.20157908       6.80207120       0.00000000       0.34519171       0.72593663      -0.55586226       0.20329385       0.66788415      -0.45044276
O        0.47424709      10.02792138       6.79658681       0.00000000       1.10370576       1.01495848      -0.98653904       1.07363919       1.07560387      -0.99484820
H       13.99305983      10.40536873       6.24356702       0.00000000       1.22115428       0.09372340       0.47457580       1.18154991       0.10416701       0.49404709
H        1.31756364      10.63486301       6.77758372       0.00000000      -2.20712511      -0.78837588      -0.02991993      -2.19592243      -0.71090152      -0.03317932
O        7.11913995       1.24594078      14.10632673       0.00000000      -0.43450464      -1.40853372      -0.36104359      -0.49065340      -1.54791933      -0.32906492
H        6.23503700       1.66508381      13.84249762       0.00000000       0.76931578      -0.65601239      -0.04461636       0.77358321      -0.64305290      -0.11188115
H        7.04423155       0.24586496      13.74948602       0.00000000      -0.26669387       2.02521183       0.22943961      -0.23570743       2.15678911       0.30461395
O        9.63221700       4.06389853       1.50967294       0.00000000       0.85644893      -0.72315367       1.79305663       0.96317059      -0.64903054       1.84768700
H       10.49432287       4.58956331       1.72409647       0.00000000      -1.05540553      -0.37739375      -0.49839347      -1.08542426      -0.49220511      -0.50399952
H        9.42900733       3.53926084       2.37439617       0.00000000       0.24700744       1.07726659      -2.13531471       0.20985321       1.05095054      -2.11098836
O        7.15476393       6.99269225       1.40327037       0.00000000      -0.25003929      -1.32984459       0.29298288      -0.34631788      -1.29715523       0.28065638
H        6.88523436       7.84071238       1.84546397       0.00000000       0.13006903      -0.02251361       0.22541274       0.19590966      -0.07057959       0.23388186
H        7.16146536       6.27029923       2.14556987       0.00000000       0.41853346       1.04336300      -0.83856896       0.38503893       0.96970103      -0.80751403
O        9.95763853       8.14484204       0.56541861       0.00000000      -1.22345079      -0.64276195       0.77680077      -1.12646646      -0.54109424       0.78350027
H        9.15380355       7.83446930       1.13578011       0.00000000       1.50077874       0.21016096      -1.12361536       1.46497839       0.22159136      -1.12712040
H       10.15053611       7.37870128      14.25598172       0.00000000      -0.49406219       0.47563664       0.69510191      -0.56351633       0.39108290       0.67187073
O       13.38121525       1.25075241      13.35067120       0.00000000       1.08029124       0.13948030      -0.29824182       1.19115531       0.11408442      -0.14893556
H        0.12402198       1.14133077      13.40451688       0.00000000      -2.66763234       0.40301171      -0.73240090      -2.65038621       0.41573346      -0.75572028
H       13.12353423       1.62658577      12.41838427       0.00000000       1.24889031      -0.63194069       1.06915116       1.19458617      -0.64104815       0.89338838
O        2.02736692       4.17451008       4.33192647       0.00000000      -0.99600790      -2.00271108       0.32512116      -0.97123183      -2.02245800       0.20404630
H        2.90448079       3.75148779       4.62109247       0.00000000      -0.85075805      -0.32384847      -0.76266073      -0.99985417      -0.30629728      -0.66457711
H        1.30077267       3.44346272       4.23350203       0.00000000       1.34725662       1.77975117       0.28272727       1.27086454       1.78154304       0.28316030
O       12.56442942      11.34976360       0.85731002       0.00000000      -0.71618341      -0.02806874      -1.72714228      -0.80548124      -0.01846959      -1.78930146
H       12.89042019      11.15902607      14.20408789       0.00000000      -0.00972854       0.15455776       1.42444011       0.01441343       0.15534892       1.34838650
H       11.70517552      11.92094158       0.69339971       0.00000000       0.64318516      -0.43924267       0.65344643       0.62480113      -0.39114333       0.67366286
O        3.79375982      10.81787380       5.08084039       0.00000000      -0.49610673       0.06488488      -0.16892509      -0.56253551      -0.08602598      -0.11367114
H        3.52928687      11.74628644       4.81339670       0.00000000       0.59963735      -0.63013732       0.59391356       0.52863548      -0.35286983       0.49972172
H        4.66661742      10.82942353       5.53415238       0.00000000      -0.39852256       0.25039873      -0.34629574      -0.28084663       0.27856784      -0.37280193
O        4.55441339       4.60750637      11.98565021       0.00000000      -0.22940464      -0.37009644      -0.87126465      -0.37038975      -0.12246145      -0.85105148
H        5.17932419       4.49179360      11.18131539       0.00000000      -0.40916847      -0.15903200       0.70330064      -0.32068438      -0.22026278       0.70907813
H        3.60654957       4.53778545      11.66606959       0.00000000       0.38096501       0.22806510       0.09887075       0.46730582       0.16561880       0.08301286
O        5.16868079       9.25254541       7.43522792       0.00000000       2.46620028      -0.68553277       0.60637261       2.31553548      -0.66628689       0.59898847
H        5.98267301       8.52708600       7.54454529       0.00000000      -2.18862345       1.88927194      -0.25451455      -2.11970491       1.77967516      -0.27522875
H        5.55257446      10.08615969       7.89043002       0.00000000      -0.50621323      -0.95188417      -0.57844015      -0.37731354      -0.86769476      -0.51927943
O        7.95516381      11.31814890      11.50431870       0.00000000       0.98856867      -0.76550643       1.07825081       1.14432682      -0.87019761       1.02553294
H        8.76625792      11.77762456      11.07552637       0.00000000      -0.61783305      -0.21204558       1.04617630      -0.66993266      -0.23115795       1.01912332
H        8.33001147      10.80251338      12.36560701       0.00000000      -0.46358022       1.16660781      -1.73252000      -0.44888589       1.19751947      -1.78308928
O       13.03517700       2.87777357       1.77110481       0.00000000      -1.20242533      -0.04399723      -0.59203563      -1.07834682      -0.05680174      -0.71550702
H       12.51180155       2.32343776       1.08761834       0.00000000       1.12501610       0.92872624       1.22949288       1.05230836       1.00021023       1.23448312
H       12.55178769       3.76899682       1.89942163       0.00000000       0.42796581      -0.64555983      -0.83955935       0.32917530      -0.67266667      -0.86739367
O        1.12350070      13.66762287      10.25953582       0.00000000      -0.24799372       1.81246537      -0.94299226      -0.17495694       1.76866456      -0.99155134
H        0.08842764      13.73857671      10.09032327       0.00000000       1.84239559      -0.00766343      -0.09945696       1.77824190       0.05430981      -0.07698732
H        1.60137489       0.07409276       9.67035723       0.00000000      -1.01046830      -1.47875107       0.76447336      -1.00798308      -1.52679190       0.82980686
O       13.70372455      10.56034637      12.66810913       0.00000000      -1.09003829      -1.31550555      -0.15483956      -1.10137160      -1.31400926      -0.18817591
H        0.10184507      10.70046190      11.94128091       0.00000000      -0.12659136      -0.55382800       0.06401482      -0.19954993      -0.54910821       0.15709668
H       13.07540016       9.72870082      12.52059159       0.00000000       1.16047624       1.96558229      -0.26100967       1.22750525       2.03891220      -0.32175146
O        3.98349328      12.94505676       1.92196873       0.00000000      -0.72909652       1.03401704       1.28728871      -0.82251454       0.89805710       1.26552082
H        3.47573184      12.96127681       1.05992886       0.00000000       0.34078638       0.17492502      -0.41671003       0.44273995       0.19202430      -0.14068665
H        3.63740527      13.72639339       2.48485241       0.00000000       0.89844379      -1.32881820      -1.31179956       0.91403450      -1.23576679      -1.30878792
O        3.39469478       7.16469189       9.89564153       0.00000000       2.82291362      -0.12980010      -0.19259672       2.81628787      -0.17054507      -0.23715226
H        4.25307988       7.60069243      10.33148255       0.00000000      -1.80940782      -1.02028683      -1.15811905      -1.76527110      -1.01691854      -1.15037557
H        3.74260385       6.54094087       9.15094410       0.00000000      -0.40884760       1.04097084       1.34702110      -0.43327422       1.01149827       1.41723477
O        4.88670768       5.67834147       8.05553937       0.00000000      -0.06181601      -0.38296636       1.33034853      -0.21415002      -0.46244252       1.24683253
H        5.54019440       6.40984345       7.92780204       0.00000000      -0.02292344      -0.09105254       0.18047654       0.04115469       0.04023318       0.12912541
H        4.79431869       5.20655277       7.16840552       0.00000000       0.17523921       1.09694479       0.72799043       0.15325985       1.13187114       0.77551068
O        4.26681097      13.07496899      10.90464664       0.00000000      -0.28206187      -1.28507962      -0.63570685      -0.50642085      -1.39159439      -0.45580276
H        3.91420512      12.11953041      10.67811851       0.00000000       1.10719527       2.22141273      -0.09972744       1.14161110       2.22318455      -0.11881767
H        4.82340539      13.49573456      10.14887550       0.00000000      -1.05527492      -0.80766995       0.49710638      -0.86350033      -0.67571288       0.36254381
O        6.36959570      11.87436229       5.54866460       0.00000000       0.12071536       1.72598631       0.64514023       0.04532955       1.67566181       0.68716729
H        6.65158878      12.43151616       4.70239389       0.00000000      -0.15847561      -0.46449965       2.22006136      -0.14343627      -0.43071149       2.11412791
H        6.36757447      12.41663578       6.42699633       0.00000000       0.22676515      -0.79314425      -2.31176130       0.25162076      -0.82376011      -2.28843380
O        7.52152293       1.62266033      10.46850251       0.00000000       0.66411445      -0.06218573       0.54421671       0.65447711      -0.09381482       0.53268288
H        8.35654928       1.45856028      11.00270474       0.00000000      -0.88065278       0.23849452      -0.65962479      -0.88246368       0.24371261      -0.58624624
H        6.79816808       1.74823111      11.12073872       0.00000000       0.09675165      -0.12121775       0.43410972       0.09893325      -0.09423972       0.40130396
O        8.76930927       5.87132511      13.77687881       0.00000000      -2.03711964       0.01005713       1.11729302      -2.07038291       0.00821694       1.15875960
H        7.93607279       6.23001700       0.04562551       0.00000000       2.02398233      -0.38461084      -0.84708908       2.11795853      -0.46517330      -0.93987774
H        8.95406773       5.01108679      14.25017090       0.00000000      -0.11364328       0.68049547      -0.25192751      -0.12293124       0.68757729      -0.24570119
O        1.36497520       7.44251950      11.38458419       0.00000000      -2.78739023       0.50191794      -0.62355838      -2.67139575       0.64175070      -0.57909068
H        0.65783430       7.95976261      10.79064091       0.00000000       2.54569982      -0.86085991       0.83394714       2.45850111      -0.88649352       0.90572664
H        2.20507449       7.18105960      10.88654701       0.00000000      -0.49011555       0.63954293      -0.60972276      -0.39974544       0.59137269      -0.64254295
O        2.60678750       0.94237400       8.03049683       0.00000000      -0.11053533       1.20583822       0.07626355       0.02947432       1.18501215       0.04589376
H        2.09253094       1.84852868       7.87049969       0.00000000       2.29395384      -2.18802490      -0.09444794       2.22388040      -2.13103070      -0.09926759
H        3.62699075       1.00200241       7.82507177       0.00000000      -2.31191145       0.84448301       0.01549450      -2.33656999       0.83959681       0.03803373
O        4.91865791       5.62755107       3.67126971       0.00000000       1.58176644       0.20885330      -1.03042469       1.64931169       0.33783554      -1.20603997
H        4.75904136       4.61453254       3.72279971       0.00000000       1.43629084       1.77711476      -0.52227851       1.63781255       1.88994887      -0.44044587
H        5.90491910       6.00137659       3.72059321       0.00000000      -2.27567689      -2.09109276      -0.20714763      -2.21534740      -2.10975519      -0.23514065
O       11.40211666       7.35809668       4.32804525       0.00000000      -1.35700161       0.68197539      -0.53672657      -1.27234932       0.85621615      -0.70540080
H       10.43827111       7.24186474       4.67301591       0.00000000       1.06429435       0.48046003      -0.55865139       1.00877406       0.45696996      -0.51936509
H       11.37720749       8.21527078       3.74676565       0.00000000       0.07745140      -1.12010118       0.88056947       0.03883915      -1.28094288       0.96851293
O        7.75138219       5.42657307       3.47604907       0.00000000       0.14804979       0.58452389       0.90013814       0.29794520       0.51080143       1.00454352
H        7.55940439       4.53405460       3.90575598       0.00000000       0.48056133       0.63901791      -0.16613904       0.30849472       0.70790054      -0.16548096
H        8.21345126       6.11446834       4.11658934       0.00000000      -0.74646381      -1.11891590      -0.79450385      -0.80874228      -1.17619367      -0.83062111
O        0.73110935       0.25825477       4.07155142       0.00000000      -1.66763975       1.36542609      -0.72733686      -1.68078541       1.24461317      -0.86413645
H        0.58477377      14.02508612       3.20110190       0.00000000      -0.52147170       0.32961596       1.29988352      -0.43611196       0.64655114       1.41645432
H       14.28797278       0.99263853       4.19641056       0.00000000       1.85589182      -1.54599776      -0.74676103       1.90695419      -1.71512047      -0.71599198
O        2.06127235       6.45750908       2.14551453       0.00000000      -0.59368062       1.20129971      -2.63005156      -0.51791236       1.18060092      -2.58399883
H        2.03714726       7.15491882       1.32668955       0.00000000       0.14227355      -2.21459365       2.18898700       0.17817889      -2.29769503       2.30200609
H        1.75382244       5.54830847       1.79531236       0.00000000       0.50232726       1.12918591       0.51704271       0.42398554       1.03654078       0.47446038
O       12.83002378       7.04362106      13.95749198       0.00000000       1.13696144      -0.26282487      -0.30969043       1.17148692      -0.05827098      -0.27642921
H       13.65653438       6.40225681      13.85046746       0.00000000      -0.62727054       0.70553647      -0.35941505      -0.74588891       0.76136834      -0.34069941
H       13.11107536       7.90509169      13.52489905       0.00000000      -0.55586946      -1.11405651       0.73728806      -0.53996507      -1.24227612       0.72564350
O        1.70504530       3.83558797      11.89277351       0.00000000       0.86418332      -0.26922229      -0.24509146       0.83786969      -0.26582551      -0.02155208
H        2.06478526       3.00781278      12.31028161       0.00000000      -0.68334888       0.03823488      -0.34914041      -0.63170164       0.11898895      -0.38482018
H        1.30943638       3.59081732      10.99093511       0.00000000       0.47732071      -0.04879286       0.55951168       0.46759722      -0.03461810       0.45391005
O       13.53308267       3.00737348       4.43438517       0.00000000       0.27653914      -0.41687458      -0.46969070       0.24121405      -0.30738988      -0.39386585
H       13.16643072       3.79519309       4.94667991       0.00000000      -0.09235506      -0.24879590      -0.75598615       0.00624802      -0.44001788      -0.87759147
H       13.34198724       3.02412935       3.43118532       0.00000000      -0.24247664       0.04454437       1.41769559      -0.24303389       0.11133180       1.49521601
O       10.34136520      12.72173627       0.63105318       0.00000000      -0.08040714       1.26014095      -1.06713131       0.07075174       1.12615068      -1.23620341
H       10.36058225      13.48414789       1.31912848       0.00000000       0.46873271      -1.25596033      -0.73805990       0.45216818      -1.18276741      -0.63649393
H       10.53593863      13.20037370      13.99457322       0.00000000      -0.49790908      -0.49867167       1.82453105      -0.49872032      -0.44023136       1.87559149
O        7.58751160      13.28981804       3.41099576       0.00000000       0.08039737      -0.05938786      -0.26656840       0.30626683      -0.20132936      -0.31160379
H        7.14319274      12.67430411       2.69511065       0.00000000       0.80725703       1.01172249       0.02807593       0.83099106       1.18085652       0.15815889
H        8.00075312      14.16944654       3.07900305       0.00000000      -1.20370472      -0.75578097      -0.25594665      -1.29029681      -0.85064006      -0.25807025
O        3.30356194      10.38874496       9.19796177       0.00000000       1.08193932      -1.43236374      -1.29260678       0.97102349      -1.43847739      -1.36527271
H        3.82892742       9.69804566       8.59315153       0.00000000      -1.09591532       1.27028549       1.56414821      -1.02477273       1.31173972       1.55426180
H        3.02447968      11.05261463       8.51711526       0.00000000      -0.12686081       0.28704775       0.07293963      -0.12427379       0.29225621       0.07781848
O       10.83998493       0.36343638       2.41308549       0.00000000      -0.46905204       1.18410982       1.51382555      -0.38140036       1.19826591       1.53709231
H       11.35660055       0.58039007       3.25589952       0.00000000      -0.89419015      -0.51344523      -1.39501846      -0.99342159      -0.56129270      -1.43060486
H        9.88928485       0.73495372       2.55313886       0.00000000       1.33391310      -0.07195490      -0.26703479       1.23829061      -0.06095716      -0.26670091
O       10.87963107      10.46768972       7.08232754       0.00000000      -0.87996167       1.43356084      -0.35979558      -0.80129861       1.37087374      -0.52528140
H       10.30756957      11.28785103       7.34162416       0.00000000       1.41143804      -1.71103894      -0.74563540       1.29473750      -1.57825581      -0.65315556
H       11.39221596      10.60851347       6.23422905       0.00000000      -0.34275996       0.56757312       0.64026747      -0.42617337       0.52538070       0.81083426
O        4.39812951       6.24875750      14.08334478       0.00000000       2.48901060      -1.54382518      -0.42995687       2.48312391      -1.53827054      -0.36121660
H        5.25244846       6.19312561       0.39675683       0.00000000      -2.20952549       0.43267659      -1.49480658      -2.23568668       0.47098430      -1.57805000
H        4.57598992       5.62876826      13.22505186       0.00000000      -0.25162000       1.39146879       1.95361535      -0.17375081       1.20722586       1.76808884
O        8.06738686       9.95252015       5.25382028       0.00000000       0.19732344       1.17955023       0.56329532       0.20811524       1.22035834       0.58526357
H        7.32234895      10.60170129       5.68794682       0.00000000       1.76576282      -0.88945778      -1.23162638       1.85886442      -0.89614800      -1.24373785
H        8.91974742      10.51557003       5.07724244       0.00000000      -1.84537704      -0.62366226       0.28384570      -1.98941595      -0.64527202       0.32943752
O        1.55235260      11.09812295      11.22172025       0.00000000      -0.19650326       0.44744912       0.29738718      -0.21870033       0.24471052       0.21524426
H        2.05336052      10.59466867      10.51290587       0.00000000      -0.36509770       0.75537834       0.07498829      -0.34338732       0.82134076       0.15686536
H        1.52687140      12.09868954      11.10878712       0.00000000       0.36774337      -1.12591753      -0.75455816       0.36577206      -0.97204629      -0.81221998
O        9.82892825      12.17389811       4.12162977       0.00000000      -1.15099298       1.12324769       0.03375087      -1.21341032       1.03583667      -0.20847491
H       10.15332819      12.82873592       4.84909422       0.00000000      -0.39756354      -1.02281680      -1.24023701      -0.38033502      -0.84719339      -1.07368157
H        8.93845635      12.67169356       3.67026558       0.00000000       1.81000328      -1.46096520       1.33432654       1.72653344      -1.41956487       1.39112515
O        0.48895618       6.43280189       5.50663881       0.00000000      -1.16234955       0.13801631       0.45925819      -1.01039781       0.24404907       0.54793229
H       13.85953338       5.99626414       5.44835562       0.00000000       1.32441030       0.58882638       0.35448059       1.22856061       0.58090202       0.37668448
H        0.34227609       7.32908448       5.91842148       0.00000000       0.02557271      -0.98226278      -0.44345157       0.00776792      -1.04117631      -0.50944238
O       13.15522466       0.44271663       6.52145168       0.00000000      -1.08959761       0.87446053       0.46769604      -1.00889572       0.78543439       0.42613338
H       13.83456402       0.19589549       5.85778840       0.00000000      -0.11196692       0.51635623      -0.08971300      -0.14558973       0.49271796      -0.02950671
H       12.70740724       1.34810866       6.36467166       0.00000000       1.40019769      -1.58041301      -0.25482668       1.35441223      -1.60116687      -0.16098547
O        5.12247774       1.76562783       6.97153892       0.00000000       0.05421017      -1.13947238      -0.74908428       0.13421449      -1.01427321      -0.90632730
H        5.35727229       2.73814442       7.05563380       0.00000000       0.34743885      -0.54962734       0.30537612       0.35387996      -0.65396796       0.53595685
H        5.09776799       1.75894276       5.94984475       0.00000000      -0.16708469      -0.31109939       1.69795254      -0.24513833      -0.37590366       1.70331752
O        1.93570510       1.04064017      12.42840368       0.00000000      -0.05193783       0.31776883      -1.52940540      -0.03202098       0.16231832      -1.49125806
H        1.79055420       0.58620274      11.50926736       0.00000000      -0.10172416       0.07785198       2.07918495      -0.11225533       0.17022487       2.07941872
H        2.05980561       0.36547746      13.12698131       0.00000000       0.40754662      -0.62517304      -0.21606781       0.37883321      -0.55644807      -0.25426065
O        6.34456762       4.09016334       9.96763997       0.00000000      -0.26696229       0.10055688      -0.12266888      -0.44807961       0.37168455      -0.09509656
H        5.78082068       4.40531564       9.17977406       0.00000000       1.12716194      -0.55507088       0.35150891       1.30148002      -0.80438971       0.38885697
H        6.93900326       3.26740999       9.88454137       0.00000000      -0.99465293       1.17537424      -0.41555509      -1.06388081       1.10817019      -0.45051976
O        9.03761903      12.54278819       8.02773173       0.00000000      -1.05584416      -0.07451623       1.33916535      -0.94703164      -0.16974157       1.25340434
H        8.58326150      11.85286522       8.62149884       0.00000000       0.60012998       1.06662943      -1.02347860       0.55156899       1.05721983      -1.00912147
H        8.93920731      13.39513454       8.54746406       0.00000000       0.34688298      -1.03207791      -0.32171753       0.28736942      -0.95882454      -0.41485409
O       12.14157869      11.09879303       9.95662803       0.00000000       1.38797466      -1.31499492       0.39577045       1.45239174      -1.50825402       0.36261198
H       13.01967767      11.03367489      10.50526156       0.00000000      -2.13926958      -0.18422778      -1.28491302      -2.17009881      -0.12886168      -1.21068745
H       11.93168928      10.11736978       9.62338433       0.00000000       0.55663565       1.78384436       0.60713058       0.50934061       1.92167004       0.72212972
O        5.85120354      14.26888882       9.08195119       0.00000000       0.97864267       0.77995911      -0.54779979       0.87374362       0.67081455      -0.60853291
H        5.72564517       0.47380495       8.21669143       0.00000000      -0.18894164      -0.28333867       0.49842227      -0.17469887      -0.33268726       0.57384740
H        6.58014945       0.51716492       9.53732448       0.00000000      -0.53593210      -0.70373721      -0.24087382      -0.54155773      -0.66265843      -0.19021397
O        6.37025609      13.29989182      12.68192070       0.00000000      -0.51233245      -0.56307421      -0.60270931      -0.59827010      -0.70774092      -0.72118583
H        5.61012571      13.36479562      11.97875006       0.00000000       1.11552616      -0.52748139       1.26410868       1.29536659      -0.49108360       1.27633994