299
Lattice="14.3 0.0 0.0 0.0 14.3 0.0 0.0 0.0 14.3" Properties=species:S:1:pos:R:3:initial_charges:R:1:MP2_forces:R:3:forces:R:3 MP2_energy=-48279.08335546864 energy=-48279.08335546864 pbc="T T T"
Ca       2.83038417       6.55396573       4.43196457       0.00000000      -1.24804802       0.40326625      -1.20217234      -1.24804802       0.40326625      -1.20217234
C        4.74769258       4.13102246       5.66536121       0.00000000      -2.17952431      -0.83348126      -1.34893503      -2.17952431      -0.83348126      -1.34893503
O        5.78093252       4.03364461       6.33006802       0.00000000       3.75088910       0.33445889       1.63289797       3.75088910       0.33445889       1.63289797
O        4.47145495       3.18042590       4.86017102       0.00000000      -0.59976539      -1.05451850      -1.94060711      -0.59976539      -1.05451850      -1.94060711
O        3.92391363       5.05451018       5.83560707       0.00000000      -0.27641161      -0.21335170       0.81325850      -0.27641161      -0.21335170       0.81325850
O       10.03400477       3.41411841       8.24707837       0.00000000       1.32900127       1.73216056       1.90540973       1.32900127       1.73216056       1.90540973
H       10.62174026       4.26696169       8.13492877       0.00000000      -1.35751943      -2.13155832       0.62686277      -1.35751943      -2.13155832       0.62686277
H       10.07061642       3.19698314       9.29556257       0.00000000       0.06170854       0.75404342      -2.45432590       0.06170854       0.75404342      -2.45432590
O        6.37136989      11.67523144       1.74182319       0.00000000      -1.05521373       1.01489780      -2.76647430      -1.05521373       1.01489780      -2.76647430
H        6.61145107      11.70640640       0.71131617       0.00000000      -0.87482974       0.06210500       3.31915045      -0.87482974       0.06210500       3.31915045
H        5.44804087      12.17069312       1.86277405       0.00000000       1.64140729      -1.04342522      -0.74778381       1.64140729      -1.04342522      -0.74778381
O        2.99561693      13.32874216       4.87516553       0.00000000      -0.86241029       1.13368637      -1.07379972      -0.86241029       1.13368637      -1.07379972
H        2.02070763      13.65965915       4.79740099       0.00000000       2.37145769      -0.17841915      -0.28184435       2.37145769      -0.17841915      -0.28184435
H        3.57861432      13.89568708       4.25703583       0.00000000      -1.77768966      -0.66411600       1.71159173      -1.77768966      -0.66411600       1.71159173
O        3.26630948       7.24381976       6.53068009       0.00000000       1.42934783       0.60570618       3.06625209       1.42934783       0.60570618       3.06625209
H        3.87848946       8.00238945       6.87407354       0.00000000      -1.59464150      -1.96362105      -0.63629614      -1.59464150      -1.96362105      -0.63629614
H        3.44417789       6.37565478       7.07866463       0.00000000      -0.24452787       3.35971320      -1.41762669      -0.24452787       3.35971320      -1.41762669
O       11.22179778       8.62538503       8.85538973       0.00000000      -2.26557349       0.66818554       0.23125789      -2.26557349       0.66818554       0.23125789
H       11.13446695       9.22285093       8.01702570       0.00000000      -0.24008038      -0.77015755       1.67910635      -0.24008038      -0.77015755       1.67910635
H       10.28754574       8.71583698       9.37322224       0.00000000       2.40233870       0.20261631      -1.73747657       2.40233870       0.20261631      -1.73747657
O       10.58818309      13.81039870       6.10752005       0.00000000       0.39316593      -1.08980329       1.00652629       0.39316593      -1.08980329       1.00652629
H       11.57915913      13.77897426       6.20476017       0.00000000      -0.95450567       0.19067302       0.13804974      -0.95450567       0.19067302       0.13804974
H       10.18627544      13.20157908       6.80207120       0.00000000       0.60590005       1.15011572      -0.98893325       0.60590005       1.15011572      -0.98893325
O        0.47424709      10.02792138       6.79658681       0.00000000       1.06091232       1.52464064      -1.30562788       1.06091232       1.52464064      -1.30562788
H       13.99305983      10.40536873       6.24356702       0.00000000       1.86482538      -0.11586523       0.81770651       1.86482538      -0.11586523       0.81770651
H        1.31756364      10.63486301       6.77758372       0.00000000      -2.76304805      -1.05480595      -0.05605622      -2.76304805      -1.05480595      -0.05605622
O        7.11913995       1.24594078      14.10632673       0.00000000      -0.98047587      -1.71805908      -0.70192150      -0.98047587      -1.71805908      -0.70192150
H        6.23503700       1.66508381      13.84249762       0.00000000       1.35879727      -1.03826656       0.08683542       1.35879727      -1.03826656       0.08683542
H        7.04423155       0.24586496      13.74948602       0.00000000      -0.30693883       2.72352453       0.44839940      -0.30693883       2.72352453       0.44839940
O        9.63221700       4.06389853       1.50967294       0.00000000       1.36043866      -0.63649103       2.24938325       1.36043866      -0.63649103       2.24938325
H       10.49432287       4.58956331       1.72409647       0.00000000      -1.69328393      -0.77861134      -0.56669586      -1.69328393      -0.77861134      -0.56669586
H        9.42900733       3.53926084       2.37439617       0.00000000       0.40594380       1.38250130      -2.57730383       0.40594380       1.38250130      -2.57730383
O        7.15476393       6.99269225       1.40327037       0.00000000      -0.42530523      -1.18080698       1.00735212      -0.42530523      -1.18080698       1.00735212
H        6.88523436       7.84071238       1.84546397       0.00000000       0.34806003      -0.67922123      -0.00718315       0.34806003      -0.67922123      -0.00718315
H        7.16146536       6.27029923       2.14556987       0.00000000       0.43381044       1.58816643      -1.29513521       0.43381044       1.58816643      -1.29513521
O        9.95763853       8.14484204       0.56541861       0.00000000      -1.60159787      -1.21032068       0.62965910      -1.60159787      -1.21032068       0.62965910
H        9.15380355       7.83446930       1.13578011       0.00000000       1.99491035       0.35345061      -1.53865418       1.99491035       0.35345061      -1.53865418
H       10.15053611       7.37870128      14.25598172       0.00000000      -0.68560785       0.93686481       1.14126907      -0.68560785       0.93686481       1.14126907
O       13.38121525       1.25075241      13.35067120       0.00000000       1.41174863       0.27080557      -0.84295578       1.41174863       0.27080557      -0.84295578
H        0.12402198       1.14133077      13.40451688       0.00000000      -3.27681363       0.52612179      -0.87029689      -3.27681363       0.52612179      -0.87029689
H       13.12353423       1.62658577      12.41838427       0.00000000       1.57213868      -0.95999291       1.73042969       1.57213868      -0.95999291       1.73042969
O        2.02736692       4.17451008       4.33192647       0.00000000      -0.73344220      -2.52268125       0.54325151      -0.73344220      -2.52268125       0.54325151
H        2.90448079       3.75148779       4.62109247       0.00000000      -1.42988468       0.01223537      -0.93278653      -1.42988468       0.01223537      -0.93278653
H        1.30077267       3.44346272       4.23350203       0.00000000       1.81308655       2.15654173       0.36954109       1.81308655       2.15654173       0.36954109
O       12.56442942      11.34976360       0.85731002       0.00000000      -1.14259319       0.24875785      -2.37421597      -1.14259319       0.24875785      -2.37421597
H       12.89042019      11.15902607      14.20408789       0.00000000      -0.22014610       0.26340645       1.96534575      -0.22014610       0.26340645       1.96534575
H       11.70517552      11.92094158       0.69339971       0.00000000       1.24887746      -0.86165490       0.74006433       1.24887746      -0.86165490       0.74006433
O        3.79375982      10.81787380       5.08084039       0.00000000      -0.23515311       0.57632516      -0.20255718      -0.23515311       0.57632516      -0.20255718
H        3.52928687      11.74628644       4.81339670       0.00000000       0.88084098      -1.23247742       0.89202528       0.88084098      -1.23247742       0.89202528
H        4.66661742      10.82942353       5.53415238       0.00000000      -0.91926869       0.38150289      -0.63658668      -0.91926869       0.38150289      -0.63658668
O        4.55441339       4.60750637      11.98565021       0.00000000      -0.35822926      -0.47652007      -1.56447782      -0.35822926      -0.47652007      -1.56447782
H        5.17932419       4.49179360      11.18131539       0.00000000      -0.92303587      -0.09962100       1.24555508      -0.92303587      -0.09962100       1.24555508
H        3.60654957       4.53778545      11.66606959       0.00000000       1.02253500       0.22540400       0.28283062       1.02253500       0.22540400       0.28283062
O        5.16868079       9.25254541       7.43522792       0.00000000       3.08241456      -0.59821862       0.95826205       3.08241456      -0.59821862       0.95826205
H        5.98267301       8.52708600       7.54454529       0.00000000      -2.65675246       2.39198538      -0.29805618      -2.65675246       2.39198538      -0.29805618
H        5.55257446      10.08615969       7.89043002       0.00000000      -0.69419791      -1.57596089      -0.82262195      -0.69419791      -1.57596089      -0.82262195
O        7.95516381      11.31814890      11.50431870       0.00000000       1.69645873      -0.77838663       1.28493461       1.69645873      -0.77838663       1.28493461
H        8.76625792      11.77762456      11.07552637       0.00000000      -1.11776610      -0.56779578       1.43098614      -1.11776610      -0.56779578       1.43098614
H        8.33001147      10.80251338      12.36560701       0.00000000      -0.66217070       1.58513355      -2.33197686      -0.66217070       1.58513355      -2.33197686
O       13.03517700       2.87777357       1.77110481       0.00000000      -1.72211988       0.29287233      -0.76392263      -1.72211988       0.29287233      -0.76392263
H       12.51180155       2.32343776       1.08761834       0.00000000       1.36864460       1.29329018       1.57680267       1.36864460       1.29329018       1.57680267
H       12.55178769       3.76899682       1.89942163       0.00000000       0.73557107      -1.32642605      -0.99290355       0.73557107      -1.32642605      -0.99290355
O        1.12350070      13.66762287      10.25953582       0.00000000      -0.61442171       2.19935009      -1.28221696      -0.61442171       2.19935009      -1.28221696
H        0.08842764      13.73857671      10.09032327       0.00000000       2.58684673       0.01149078      -0.11502911       2.58684673       0.01149078      -0.11502911
H        1.60137489       0.07409276       9.67035723       0.00000000      -1.36510316      -1.87305034       1.07279545      -1.36510316      -1.87305034       1.07279545
O       13.70372455      10.56034637      12.66810913       0.00000000      -0.94080220      -1.62523557      -0.68021110      -0.94080220      -1.62523557      -0.68021110
H        0.10184507      10.70046190      11.94128091       0.00000000      -0.66047583      -0.75542976       0.56962281      -0.66047583      -0.75542976       0.56962281
H       13.07540016       9.72870082      12.52059159       0.00000000       1.54816469       2.55010875      -0.26910710       1.54816469       2.55010875      -0.26910710
O        3.98349328      12.94505676       1.92196873       0.00000000      -1.30126112       1.43875910       1.12596175      -1.30126112       1.43875910       1.12596175
H        3.47573184      12.96127681       1.05992886       0.00000000       0.67256207       0.22318308       0.18515081       0.67256207       0.22318308       0.18515081
H        3.63740527      13.72639339       2.48485241       0.00000000       1.10334684      -1.75124791      -1.76013879       1.10334684      -1.75124791      -1.76013879
O        3.39469478       7.16469189       9.89564153       0.00000000       3.48667840      -0.30867176      -0.35632973       3.48667840      -0.30867176      -0.35632973
H        4.25307988       7.60069243      10.33148255       0.00000000      -2.31433858      -1.28698738      -1.47535824      -2.31433858      -1.28698738      -1.47535824
H        3.74260385       6.54094087       9.15094410       0.00000000      -0.51147730       1.50122405       1.85022460      -0.51147730       1.50122405       1.85022460
O        4.88670768       5.67834147       8.05553937       0.00000000       0.14178658      -0.33386188       0.57751969       0.14178658      -0.33386188       0.57751969
H        5.54019440       6.40984345       7.92780204       0.00000000      -0.42665969      -0.56063320       0.24128468      -0.42665969      -0.56063320       0.24128468
H        4.79431869       5.20655277       7.16840552       0.00000000       0.30775850       1.46876953       1.35042679       0.30775850       1.46876953       1.35042679
O        4.26681097      13.07496899      10.90464664       0.00000000      -0.06185098      -1.43548351      -1.11904857      -0.06185098      -1.43548351      -1.11904857
H        3.91420512      12.11953041      10.67811851       0.00000000       1.30328149       2.79544344      -0.06565878       1.30328149       2.79544344      -0.06565878
H        4.82340539      13.49573456      10.14887550       0.00000000      -1.46993887      -1.20264028       1.02576945      -1.46993887      -1.20264028       1.02576945
O        6.36959570      11.87436229       5.54866460       0.00000000       0.24152842       2.19720785       0.55222672       0.24152842       2.19720785       0.55222672
H        6.65158878      12.43151616       4.70239389       0.00000000      -0.30743814      -0.78766574       2.87971803      -0.30743814      -0.78766574       2.87971803
H        6.36757447      12.41663578       6.42699633       0.00000000       0.24582113      -1.01680607      -2.87837180       0.24582113      -1.01680607      -2.87837180
O        7.52152293       1.62266033      10.46850251       0.00000000       0.65760956      -0.07424164       1.14993420       0.65760956      -0.07424164       1.14993420
H        8.35654928       1.45856028      11.00270474       0.00000000      -1.41107037       0.32413129      -0.90528395      -1.41107037       0.32413129      -0.90528395
H        6.79816808       1.74823111      11.12073872       0.00000000       0.62659589      -0.19650223       0.00684993       0.62659589      -0.19650223       0.00684993
O        8.76930927       5.87132511      13.77687881       0.00000000      -2.40868264      -0.24677707       1.71573481      -2.40868264      -0.24677707       1.71573481
H        7.93607279       6.23001700       0.04562551       0.00000000       2.60740322      -0.70047705      -1.17211820       2.60740322      -0.70047705      -1.17211820
H        8.95406773       5.01108679      14.25017090       0.00000000      -0.24978372       1.25282616      -0.45041668      -0.24978372       1.25282616      -0.45041668
O        1.36497520       7.44251950      11.38458419       0.00000000      -2.57814766       0.53647151      -1.15360625      -2.57814766       0.53647151      -1.15360625
H        0.65783430       7.95976261      10.79064091       0.00000000       3.04087582      -1.18941607       1.07059612       3.04087582      -1.18941607       1.07059612
H        2.20507449       7.18105960      10.88654701       0.00000000      -1.19168224       0.94322264      -0.33820551      -1.19168224       0.94322264      -0.33820551
O        2.60678750       0.94237400       8.03049683       0.00000000       0.12425628       1.61590401      -0.04733504       0.12425628       1.61590401      -0.04733504
H        2.09253094       1.84852868       7.87049969       0.00000000       2.77589482      -2.74566636      -0.01288277       2.77589482      -2.74566636      -0.01288277
H        3.62699075       1.00200241       7.82507177       0.00000000      -3.00299935       0.93158685       0.08565579      -3.00299935       0.93158685       0.08565579
O        4.91865791       5.62755107       3.67126971       0.00000000       1.88181626      -0.09375785      -0.84604521       1.88181626      -0.09375785      -0.84604521
H        4.75904136       4.61453254       3.72279971       0.00000000       1.57847388       2.40685613      -0.46749858       1.57847388       2.40685613      -0.46749858
H        5.90491910       6.00137659       3.72059321       0.00000000      -2.84697400      -2.47657880      -0.24209612      -2.84697400      -2.47657880      -0.24209612
O       11.40211666       7.35809668       4.32804525       0.00000000      -1.96571702       1.02487265      -0.70509733      -1.96571702       1.02487265      -0.70509733
H       10.43827111       7.24186474       4.67301591       0.00000000       1.71691186       0.64190989      -0.81874112       1.71691186       0.64190989      -0.81874112
H       11.37720749       8.21527078       3.74676565       0.00000000       0.01200037      -1.64954689       1.28378482       0.01200037      -1.64954689       1.28378482
O        7.75138219       5.42657307       3.47604907       0.00000000       0.21715436       0.50582499       1.53321886       0.21715436       0.50582499       1.53321886
H        7.55940439       4.53405460       3.90575598       0.00000000       0.64293885       1.28603813      -0.38883567       0.64293885       1.28603813      -0.38883567
H        8.21345126       6.11446834       4.11658934       0.00000000      -1.06199373      -1.67092150      -1.16022941      -1.06199373      -1.67092150      -1.16022941
O        0.73110935       0.25825477       4.07155142       0.00000000      -2.16986262       1.42492913      -1.05673068      -2.16986262       1.42492913      -1.05673068
H        0.58477377      14.02508612       3.20110190       0.00000000      -0.51238593       0.71433376       1.85945537      -0.51238593       0.71433376       1.85945537
H       14.28797278       0.99263853       4.19641056       0.00000000       2.30542816      -1.99906423      -0.92348016       2.30542816      -1.99906423      -0.92348016
O        2.06127235       6.45750908       2.14551453       0.00000000      -0.84002935       0.99877955      -3.19531120      -0.84002935       0.99877955      -3.19531120
H        2.03714726       7.15491882       1.32668955       0.00000000       0.17533074      -2.68817238       2.59535914       0.17533074      -2.68817238       2.59535914
H        1.75382244       5.54830847       1.79531236       0.00000000       0.75040737       1.79042073       0.74299333       0.75040737       1.79042073       0.74299333
O       12.83002378       7.04362106      13.95749198       0.00000000       1.79414883      -0.29611089      -0.65051023       1.79414883      -0.29611089      -0.65051023
H       13.65653438       6.40225681      13.85046746       0.00000000      -1.24236485       1.27769644      -0.26672678      -1.24236485       1.27769644      -0.26672678
H       13.11107536       7.90509169      13.52489905       0.00000000      -0.64110154      -1.66546408       0.99528131      -0.64110154      -1.66546408       0.99528131
O        1.70504530       3.83558797      11.89277351       0.00000000       0.80979008      -0.83176788      -0.63284727       0.80979008      -0.83176788      -0.63284727
H        2.06478526       3.00781278      12.31028161       0.00000000      -0.94753592       0.49260026      -0.66952560      -0.94753592       0.49260026      -0.66952560
H        1.30943638       3.59081732      10.99093511       0.00000000       0.78047128       0.06028466       1.22019526       0.78047128       0.06028466       1.22019526
O       13.53308267       3.00737348       4.43438517       0.00000000       0.05860470       0.03103425      -0.80114963       0.05860470       0.03103425      -0.80114963
H       13.16643072       3.79519309       4.94667991       0.00000000       0.09681695      -0.76233214      -1.21337001       0.09681695      -0.76233214      -1.21337001
H       13.34198724       3.02412935       3.43118532       0.00000000      -0.16244694       0.14410777       2.13530442      -0.16244694       0.14410777       2.13530442
O       10.34136520      12.72173627       0.63105318       0.00000000       0.01618612       1.97290531      -1.21557293       0.01618612       1.97290531      -1.21557293
H       10.36058225      13.48414789       1.31912848       0.00000000       0.49856985      -1.70669789      -1.26561174       0.49856985      -1.70669789      -1.26561174
H       10.53593863      13.20037370      13.99457322       0.00000000      -0.61361798      -0.71723293       2.51497463      -0.61361798      -0.71723293       2.51497463
O        7.58751160      13.28981804       3.41099576       0.00000000       0.08952376       0.01454062      -0.87041362       0.08952376       0.01454062      -0.87041362
H        7.14319274      12.67430411       2.69511065       0.00000000       1.09978020       1.52587425       0.46086565       1.09978020       1.52587425       0.46086565
H        8.00075312      14.16944654       3.07900305       0.00000000      -1.53801243      -1.33663282      -0.15700597      -1.53801243      -1.33663282      -0.15700597
O        3.30356194      10.38874496       9.19796177       0.00000000       1.17945561      -1.42263931      -2.04323115       1.17945561      -1.42263931      -2.04323115
H        3.82892742       9.69804566       8.59315153       0.00000000      -1.44670998       1.76589806       1.86626417      -1.44670998       1.76589806       1.86626417
H        3.02447968      11.05261463       8.51711526       0.00000000       0.05552760      -0.19219152       0.51139400       0.05552760      -0.19219152       0.51139400
O       10.83998493       0.36343638       2.41308549       0.00000000      -0.89205819       1.47317075       2.01880413      -0.89205819       1.47317075       2.01880413
H       11.35660055       0.58039007       3.25589952       0.00000000      -1.25903177      -0.57662803      -1.86604099      -1.25903177      -0.57662803      -1.86604099
H        9.88928485       0.73495372       2.55313886       0.00000000       2.08005501      -0.30986475      -0.33785686       2.08005501      -0.30986475      -0.33785686
O       10.87963107      10.46768972       7.08232754       0.00000000      -0.87619911       1.92356275      -0.67423329      -0.87619911       1.92356275      -0.67423329
H       10.30756957      11.28785103       7.34162416       0.00000000       1.73833789      -2.17592631      -0.95946789       1.73833789      -2.17592631      -0.95946789
H       11.39221596      10.60851347       6.23422905       0.00000000      -0.67022854       0.55520560       1.18803281      -0.67022854       0.55520560       1.18803281
O        4.39812951       6.24875750      14.08334478       0.00000000       3.04728455      -1.98335941      -0.69074646       3.04728455      -1.98335941      -0.69074646
H        5.25244846       6.19312561       0.39675683       0.00000000      -2.69183260       0.43211197      -1.89701919      -2.69183260       0.43211197      -1.89701919
H        4.57598992       5.62876826      13.22505186       0.00000000      -0.34611885       1.82407030       2.60793030      -0.34611885       1.82407030       2.60793030
O        8.06738686       9.95252015       5.25382028       0.00000000       0.16127554       1.82911944       0.68942748       0.16127554       1.82911944       0.68942748
H        7.32234895      10.60170129       5.68794682       0.00000000       2.37205008      -1.26319748      -1.57865437       2.37205008      -1.26319748      -1.57865437
H        8.91974742      10.51557003       5.07724244       0.00000000      -2.45301669      -0.91433732       0.41965549      -2.45301669      -0.91433732       0.41965549
O        1.55235260      11.09812295      11.22172025       0.00000000      -0.00543480       0.68278529      -0.06757014      -0.00543480       0.68278529      -0.06757014
H        2.05336052      10.59466867      10.51290587       0.00000000      -0.64597532       1.20746315       0.47325682      -0.64597532       1.20746315       0.47325682
H        1.52687140      12.09868954      11.10878712       0.00000000       0.42170003      -1.79393749      -0.82582400       0.42170003      -1.79393749      -0.82582400
O        9.82892825      12.17389811       4.12162977       0.00000000      -1.45226253       1.76834267       0.27787559      -1.45226253       1.76834267       0.27787559
H       10.15332819      12.82873592       4.84909422       0.00000000      -0.66563809      -1.43507368      -1.73436914      -0.66563809      -1.43507368      -1.73436914
H        8.93845635      12.67169356       3.67026558       0.00000000       2.36250151      -1.70175366       1.67840341       2.36250151      -1.70175366       1.67840341
O        0.48895618       6.43280189       5.50663881       0.00000000      -1.70378278       0.29247123       0.49630059      -1.70378278       0.29247123       0.49630059
H       13.85953338       5.99626414       5.44835562       0.00000000       1.91305979       0.96892081       0.50798832       1.91305979       0.96892081       0.50798832
H        0.34227609       7.32908448       5.91842148       0.00000000       0.08583423      -1.51413459      -0.70823253       0.08583423      -1.51413459      -0.70823253
O       13.15522466       0.44271663       6.52145168       0.00000000      -0.94159256       1.07094168       0.03355238      -0.94159256       1.07094168       0.03355238
H       13.83456402       0.19589549       5.85778840       0.00000000      -0.56935798       0.80456252       0.29934945      -0.56935798       0.80456252       0.29934945
H       12.70740724       1.34810866       6.36467166       0.00000000       1.70688198      -2.11670043      -0.21640103       1.70688198      -2.11670043      -0.21640103
O        5.12247774       1.76562783       6.97153892       0.00000000       0.18697012      -0.49738303      -1.23305078       0.18697012      -0.49738303      -1.23305078
H        5.35727229       2.73814442       7.05563380       0.00000000       0.18457385      -1.24904715       0.09478167       0.18457385      -1.24904715       0.09478167
H        5.09776799       1.75894276       5.94984475       0.00000000      -0.17516207      -0.14790941       2.29677948      -0.17516207      -0.14790941       2.29677948
O        1.93570510       1.04064017      12.42840368       0.00000000      -0.04103584      -0.28040453      -1.65800017      -0.04103584      -0.28040453      -1.65800017
H        1.79055420       0.58620274      11.50926736       0.00000000       0.00805527       0.29448287       2.77964812       0.00805527       0.29448287       2.77964812
H        2.05980561       0.36547746      13.12698131       0.00000000       0.30765668      -0.25372265      -0.78002442       0.30765668      -0.25372265      -0.78002442
O        6.34456762       4.09016334       9.96763997       0.00000000      -0.33946072      -0.17008980      -0.52682319      -0.33946072      -0.17008980      -0.52682319
H        5.78082068       4.40531564       9.17977406       0.00000000       1.56798430      -0.81047914       0.83122589       1.56798430      -0.81047914       0.83122589
H        6.93900326       3.26740999       9.88454137       0.00000000      -1.42372226       1.66681699      -0.44330758      -1.42372226       1.66681699      -0.44330758
O        9.03761903      12.54278819       8.02773173       0.00000000      -1.20890349      -0.08444223       1.89350861      -1.20890349      -0.08444223       1.89350861
H        8.58326150      11.85286522       8.62149884       0.00000000       0.86990042       1.56345967      -1.38520044       0.86990042       1.56345967      -1.38520044
H        8.93920731      13.39513454       8.54746406       0.00000000       0.36726052      -1.55003697      -0.62330847       0.36726052      -1.55003697      -0.62330847
O       12.14157869      11.09879303       9.95662803       0.00000000       1.67990340      -1.90792427       0.44173561       1.67990340      -1.90792427       0.44173561
H       13.01967767      11.03367489      10.50526156       0.00000000      -2.66117322      -0.22751077      -1.59893267      -2.66117322      -0.22751077      -1.59893267
H       11.93168928      10.11736978       9.62338433       0.00000000       0.72302614       2.44523859       0.85309055       0.72302614       2.44523859       0.85309055
O        5.85120354      14.26888882       9.08195119       0.00000000       1.35761096       1.33101033      -0.76715091       1.35761096       1.33101033      -0.76715091
H        5.72564517       0.47380495       8.21669143       0.00000000      -0.10181055      -0.51031774       1.06116789      -0.10181055      -0.51031774       1.06116789
H        6.58014945       0.51716492       9.53732448       0.00000000      -1.05135964      -0.98180564      -0.56895329      -1.05135964      -0.98180564      -0.56895329
O        6.37025609      13.29989182      12.68192070       0.00000000      -0.71676037      -1.00486072      -1.16447893      -0.71676037      -1.00486072      -1.16447893
H        5.61012571      13.36479562      11.97875006       0.00000000       1.67416469      -0.69400404       1.73400507       1.67416469      -0.69400404       1.73400507