299
Lattice="14.3 0.0 0.0 0.0 14.3 0.0 0.0 0.0 14.3" Properties=species:S:1:pos:R:3:initial_charges:R:1:rPBE0D3_forces:R:3:forces:R:3 rPBE0D3_energy=-48449.2267384591 energy=-48449.2267384591 pbc="T T T"
Ca       2.83038417       6.55396573       4.43196457       0.00000000      -1.26838596       0.52727416      -1.23390078      -1.26838596       0.52727416      -1.23390078
C        4.74769258       4.13102246       5.66536121       0.00000000      -2.02452175      -0.78967994      -1.49070516      -2.02452175      -0.78967994      -1.49070516
O        5.78093252       4.03364461       6.33006802       0.00000000       3.14847289       0.35730778       1.31959154       3.14847289       0.35730778       1.31959154
O        4.47145495       3.18042590       4.86017102       0.00000000      -0.52366536      -0.60538377      -1.48758332      -0.52366536      -0.60538377      -1.48758332
O        3.92391363       5.05451018       5.83560707       0.00000000       0.18206446      -0.66170687       0.75524516       0.18206446      -0.66170687       0.75524516
O       10.03400477       3.41411841       8.24707837       0.00000000       1.48868016       1.93334065       1.94568246       1.48868016       1.93334065       1.94568246
H       10.62174026       4.26696169       8.13492877       0.00000000      -1.42081434      -2.27534985       0.59907531      -1.42081434      -2.27534985       0.59907531
H       10.07061642       3.19698314       9.29556257       0.00000000      -0.03800708       0.69337104      -2.44396641      -0.03800708       0.69337104      -2.44396641
O        6.37136989      11.67523144       1.74182319       0.00000000      -1.00848135       1.04715537      -3.03177206      -1.00848135       1.04715537      -3.03177206
H        6.61145107      11.70640640       0.71131617       0.00000000      -0.87210129       0.03206680       3.49293492      -0.87210129       0.03206680       3.49293492
H        5.44804087      12.17069312       1.86277405       0.00000000       1.59718226      -1.05756166      -0.66329221       1.59718226      -1.05756166      -0.66329221
O        2.99561693      13.32874216       4.87516553       0.00000000      -0.93274745       1.35988896      -1.19958118      -0.93274745       1.35988896      -1.19958118
H        2.02070763      13.65965915       4.79740099       0.00000000       2.41857728      -0.25968915      -0.22721972       2.41857728      -0.25968915      -0.22721972
H        3.57861432      13.89568708       4.25703583       0.00000000      -1.77234485      -0.77156138       1.79963402      -1.77234485      -0.77156138       1.79963402
O        3.26630948       7.24381976       6.53068009       0.00000000       1.54169939       0.61674702       3.26997553       1.54169939       0.61674702       3.26997553
H        3.87848946       8.00238945       6.87407354       0.00000000      -1.70043828      -2.02891576      -0.73283696      -1.70043828      -2.02891576      -0.73283696
H        3.44417789       6.37565478       7.07866463       0.00000000      -0.33264318       3.43256645      -1.46030032      -0.33264318       3.43256645      -1.46030032
O       11.22179778       8.62538503       8.85538973       0.00000000      -2.35877804       0.78409962       0.18573599      -2.35877804       0.78409962       0.18573599
H       11.13446695       9.22285093       8.01702570       0.00000000      -0.20065353      -0.86060949       1.68206209      -0.20065353      -0.86060949       1.68206209
H       10.28754574       8.71583698       9.37322224       0.00000000       2.41848729       0.17142420      -1.72174759       2.41848729       0.17142420      -1.72174759
O       10.58818309      13.81039870       6.10752005       0.00000000       0.51916387      -1.17097766       1.13769986       0.51916387      -1.17097766       1.13769986
H       11.57915913      13.77897426       6.20476017       0.00000000      -1.12424425       0.17548397       0.09935720      -1.12424425       0.17548397       0.09935720
H       10.18627544      13.20157908       6.80207120       0.00000000       0.68240991       1.22362202      -1.08664906       0.68240991       1.22362202      -1.08664906
O        0.47424709      10.02792138       6.79658681       0.00000000       1.11564237       1.70737152      -1.43546500       1.11564237       1.70737152      -1.43546500
H       13.99305983      10.40536873       6.24356702       0.00000000       1.86161047      -0.16433927       0.91964150       1.86161047      -0.16433927       0.91964150
H        1.31756364      10.63486301       6.77758372       0.00000000      -2.86024090      -1.20887161      -0.02874288      -2.86024090      -1.20887161      -0.02874288
O        7.11913995       1.24594078      14.10632673       0.00000000      -1.19201339      -1.76034345      -0.81103141      -1.19201339      -1.76034345      -0.81103141
H        6.23503700       1.66508381      13.84249762       0.00000000       1.49192694      -1.01963686       0.15306704       1.49192694      -1.01963686       0.15306704
H        7.04423155       0.24586496      13.74948602       0.00000000      -0.23858656       2.73452371       0.48253131      -0.23858656       2.73452371       0.48253131
O        9.63221700       4.06389853       1.50967294       0.00000000       1.39055297      -0.74523894       2.56562536       1.39055297      -0.74523894       2.56562536
H       10.49432287       4.58956331       1.72409647       0.00000000      -1.75076455      -0.77603921      -0.64254752      -1.75076455      -0.77603921      -0.64254752
H        9.42900733       3.53926084       2.37439617       0.00000000       0.41028896       1.50374374      -2.79524752       0.41028896       1.50374374      -2.79524752
O        7.15476393       6.99269225       1.40327037       0.00000000      -0.48941004      -1.14189179       1.18987835      -0.48941004      -1.14189179       1.18987835
H        6.88523436       7.84071238       1.84546397       0.00000000       0.36511570      -0.77219901      -0.13193411       0.36511570      -0.77219901      -0.13193411
H        7.16146536       6.27029923       2.14556987       0.00000000       0.43096063       1.59573061      -1.38883033       0.43096063       1.59573061      -1.38883033
O        9.95763853       8.14484204       0.56541861       0.00000000      -1.70114739      -1.46459097       0.62276494      -1.70114739      -1.46459097       0.62276494
H        9.15380355       7.83446930       1.13578011       0.00000000       2.12327886       0.41747005      -1.56034658       2.12327886       0.41747005      -1.56034658
H       10.15053611       7.37870128      14.25598172       0.00000000      -0.67526996       1.10717058       1.24657529      -0.67526996       1.10717058       1.24657529
O       13.38121525       1.25075241      13.35067120       0.00000000       1.60761220       0.29021998      -0.93125261       1.60761220       0.29021998      -0.93125261
H        0.12402198       1.14133077      13.40451688       0.00000000      -3.44182859       0.52004165      -0.81156826      -3.44182859       0.52004165      -0.81156826
H       13.12353423       1.62658577      12.41838427       0.00000000       1.50383012      -0.92913607       1.77391990       1.50383012      -0.92913607       1.77391990
O        2.02736692       4.17451008       4.33192647       0.00000000      -0.79213483      -2.85250342       0.50744581      -0.79213483      -2.85250342       0.50744581
H        2.90448079       3.75148779       4.62109247       0.00000000      -1.60317807       0.00443053      -1.01262186      -1.60317807       0.00443053      -1.01262186
H        1.30077267       3.44346272       4.23350203       0.00000000       1.92239238       2.33205862       0.37979105       1.92239238       2.33205862       0.37979105
O       12.56442942      11.34976360       0.85731002       0.00000000      -1.11135223       0.23032921      -2.58631503      -1.11135223       0.23032921      -2.58631503
H       12.89042019      11.15902607      14.20408789       0.00000000      -0.24889257       0.30504342       2.16176776      -0.24889257       0.30504342       2.16176776
H       11.70517552      11.92094158       0.69339971       0.00000000       1.26051170      -0.85968029       0.77255794       1.26051170      -0.85968029       0.77255794
O        3.79375982      10.81787380       5.08084039       0.00000000      -0.02961140       0.79611439      -0.03878767      -0.02961140       0.79611439      -0.03878767
H        3.52928687      11.74628644       4.81339670       0.00000000       0.87950709      -1.39855167       0.85122753       0.87950709      -1.39855167       0.85122753
H        4.66661742      10.82942353       5.53415238       0.00000000      -1.13454409       0.29288775      -0.75234649      -1.13454409       0.29288775      -0.75234649
O        4.55441339       4.60750637      11.98565021       0.00000000      -0.52932642      -0.56022131      -1.69783324      -0.52932642      -0.56022131      -1.69783324
H        5.17932419       4.49179360      11.18131539       0.00000000      -0.91341583      -0.06704255       1.30894769      -0.91341583      -0.06704255       1.30894769
H        3.60654957       4.53778545      11.66606959       0.00000000       1.18218561       0.29901623       0.32546518       1.18218561       0.29901623       0.32546518
O        5.16868079       9.25254541       7.43522792       0.00000000       3.25997136      -0.50626516       1.05865078       3.25997136      -0.50626516       1.05865078
H        5.98267301       8.52708600       7.54454529       0.00000000      -2.69475543       2.38585433      -0.33064029      -2.69475543       2.38585433      -0.33064029
H        5.55257446      10.08615969       7.89043002       0.00000000      -0.79199599      -1.62880015      -0.93414561      -0.79199599      -1.62880015      -0.93414561
O        7.95516381      11.31814890      11.50431870       0.00000000       1.86240185      -0.72549492       1.29903969       1.86240185      -0.72549492       1.29903969
H        8.76625792      11.77762456      11.07552637       0.00000000      -1.24854990      -0.59972066       1.43770340      -1.24854990      -0.59972066       1.43770340
H        8.33001147      10.80251338      12.36560701       0.00000000      -0.68947376       1.54294226      -2.35144525      -0.68947376       1.54294226      -2.35144525
O       13.03517700       2.87777357       1.77110481       0.00000000      -1.93724873       0.25455929      -0.95423159      -1.93724873       0.25455929      -0.95423159
H       12.51180155       2.32343776       1.08761834       0.00000000       1.50733402       1.37658519       1.74028164       1.50733402       1.37658519       1.74028164
H       12.55178769       3.76899682       1.89942163       0.00000000       0.77911219      -1.38165232      -0.99421584       0.77911219      -1.38165232      -0.99421584
O        1.12350070      13.66762287      10.25953582       0.00000000      -0.60762217       2.40127992      -1.46445779      -0.60762217       2.40127992      -1.46445779
H        0.08842764      13.73857671      10.09032327       0.00000000       2.60295573      -0.05899602      -0.01013940       2.60295573      -0.05899602      -0.01013940
H        1.60137489       0.07409276       9.67035723       0.00000000      -1.41749967      -2.01728872       1.19654419      -1.41749967      -2.01728872       1.19654419
O       13.70372455      10.56034637      12.66810913       0.00000000      -0.97276616      -1.74497237      -0.73953006      -0.97276616      -1.74497237      -0.73953006
H        0.10184507      10.70046190      11.94128091       0.00000000      -0.71752296      -0.73593720       0.61683083      -0.71752296      -0.73593720       0.61683083
H       13.07540016       9.72870082      12.52059159       0.00000000       1.62834300       2.60441046      -0.23426454       1.62834300       2.60441046      -0.23426454
O        3.98349328      12.94505676       1.92196873       0.00000000      -1.44110086       1.60195268       1.06327311      -1.44110086       1.60195268       1.06327311
H        3.47573184      12.96127681       1.05992886       0.00000000       0.74837414       0.19710078       0.29080979       0.74837414       0.19710078       0.29080979
H        3.63740527      13.72639339       2.48485241       0.00000000       1.17176904      -1.91250083      -1.81341925       1.17176904      -1.91250083      -1.81341925
O        3.39469478       7.16469189       9.89564153       0.00000000       3.73811071      -0.33011219      -0.45757875       3.73811071      -0.33011219      -0.45757875
H        4.25307988       7.60069243      10.33148255       0.00000000      -2.41960212      -1.33054701      -1.50148476      -2.41960212      -1.33054701      -1.50148476
H        3.74260385       6.54094087       9.15094410       0.00000000      -0.66323514       1.54203415       1.92770274      -0.66323514       1.54203415       1.92770274
O        4.88670768       5.67834147       8.05553937       0.00000000       0.35520513      -0.16153625       0.58515536       0.35520513      -0.16153625       0.58515536
H        5.54019440       6.40984345       7.92780204       0.00000000      -0.58187309      -0.71909133       0.26440661      -0.58187309      -0.71909133       0.26440661
H        4.79431869       5.20655277       7.16840552       0.00000000       0.32630233       1.55120579       1.42902130       0.32630233       1.55120579       1.42902130
O        4.26681097      13.07496899      10.90464664       0.00000000      -0.09274793      -1.62515175      -1.26216081      -0.09274793      -1.62515175      -1.26216081
H        3.91420512      12.11953041      10.67811851       0.00000000       1.37951111       2.93305660      -0.00182908       1.37951111       2.93305660      -0.00182908
H        4.82340539      13.49573456      10.14887550       0.00000000      -1.52800364      -1.18536709       1.05297841      -1.52800364      -1.18536709       1.05297841
O        6.36959570      11.87436229       5.54866460       0.00000000       0.32280048       2.44356532       0.71076661       0.32280048       2.44356532       0.71076661
H        6.65158878      12.43151616       4.70239389       0.00000000      -0.36167145      -0.83261685       2.87708985      -0.36167145      -0.83261685       2.87708985
H        6.36757447      12.41663578       6.42699633       0.00000000       0.23921186      -1.15964989      -3.01834627       0.23921186      -1.15964989      -3.01834627
O        7.52152293       1.62266033      10.46850251       0.00000000       0.65202153      -0.07549736       1.48412930       0.65202153      -0.07549736       1.48412930
H        8.35654928       1.45856028      11.00270474       0.00000000      -1.54984259       0.36033088      -1.05468048      -1.54984259       0.36033088      -1.05468048
H        6.79816808       1.74823111      11.12073872       0.00000000       0.75878505      -0.23568533      -0.10230626       0.75878505      -0.23568533      -0.10230626
O        8.76930927       5.87132511      13.77687881       0.00000000      -2.43844213      -0.48183711       1.89778024      -2.43844213      -0.48183711       1.89778024
H        7.93607279       6.23001700       0.04562551       0.00000000       2.60577571      -0.64319493      -1.23185470       2.60577571      -0.64319493      -1.23185470
H        8.95406773       5.01108679      14.25017090       0.00000000      -0.27794964       1.43810655      -0.61073681      -0.27794964       1.43810655      -0.61073681
O        1.36497520       7.44251950      11.38458419       0.00000000      -2.65182366       0.58025123      -1.35458426      -2.65182366       0.58025123      -1.35458426
H        0.65783430       7.95976261      10.79064091       0.00000000       3.10729205      -1.20715874       1.20734077       3.10729205      -1.20715874       1.20734077
H        2.20507449       7.18105960      10.88654701       0.00000000      -1.20426624       0.89476814      -0.24276872      -1.20426624       0.89476814      -0.24276872
O        2.60678750       0.94237400       8.03049683       0.00000000       0.23236141       1.84714647      -0.15089394       0.23236141       1.84714647      -0.15089394
H        2.09253094       1.84852868       7.87049969       0.00000000       2.75337299      -2.85607468       0.00179669       2.75337299      -2.85607468       0.00179669
H        3.62699075       1.00200241       7.82507177       0.00000000      -3.10305487       0.84953780       0.13019965      -3.10305487       0.84953780       0.13019965
O        4.91865791       5.62755107       3.67126971       0.00000000       2.06843671      -0.25878567      -0.88846225       2.06843671      -0.25878567      -0.88846225
H        4.75904136       4.61453254       3.72279971       0.00000000       1.61158507       2.52809188      -0.60162739       1.61158507       2.52809188      -0.60162739
H        5.90491910       6.00137659       3.72059321       0.00000000      -2.96931481      -2.41397963      -0.24235477      -2.96931481      -2.41397963      -0.24235477
O       11.40211666       7.35809668       4.32804525       0.00000000      -2.12859384       1.17147079      -0.72545841      -2.12859384       1.17147079      -0.72545841
H       10.43827111       7.24186474       4.67301591       0.00000000       1.81437262       0.62458014      -0.83331877       1.81437262       0.62458014      -0.83331877
H       11.37720749       8.21527078       3.74676565       0.00000000       0.06827462      -1.76025192       1.32302859       0.06827462      -1.76025192       1.32302859
O        7.75138219       5.42657307       3.47604907       0.00000000       0.24634204       0.36943310       1.69345825       0.24634204       0.36943310       1.69345825
H        7.55940439       4.53405460       3.90575598       0.00000000       0.66703677       1.39334673      -0.49528090       0.66703677       1.39334673      -0.49528090
H        8.21345126       6.11446834       4.11658934       0.00000000      -1.04941435      -1.66100424      -1.22985798      -1.04941435      -1.66100424      -1.22985798
O        0.73110935       0.25825477       4.07155142       0.00000000      -2.27477906       1.48306487      -1.26130360      -2.27477906       1.48306487      -1.26130360
H        0.58477377      14.02508612       3.20110190       0.00000000      -0.46031183       0.77365991       1.96511795      -0.46031183       0.77365991       1.96511795
H       14.28797278       0.99263853       4.19641056       0.00000000       2.38696865      -2.10325150      -0.89512089       2.38696865      -2.10325150      -0.89512089
O        2.06127235       6.45750908       2.14551453       0.00000000      -0.89827204       0.97457930      -3.43055430      -0.89827204       0.97457930      -3.43055430
H        2.03714726       7.15491882       1.32668955       0.00000000       0.17238682      -2.70510258       2.73822456       0.17238682      -2.70510258       2.73822456
H        1.75382244       5.54830847       1.79531236       0.00000000       0.76248590       1.84706317       0.80561975       0.76248590       1.84706317       0.80561975
O       12.83002378       7.04362106      13.95749198       0.00000000       1.90513256      -0.02784094      -0.75552078       1.90513256      -0.02784094      -0.75552078
H       13.65653438       6.40225681      13.85046746       0.00000000      -1.21641162       1.22354026      -0.29153998      -1.21641162       1.22354026      -0.29153998
H       13.11107536       7.90509169      13.52489905       0.00000000      -0.74988595      -1.86224810       1.11595142      -0.74988595      -1.86224810       1.11595142
O        1.70504530       3.83558797      11.89277351       0.00000000       0.91689454      -1.10751100      -0.60541565       0.91689454      -1.10751100      -0.60541565
H        2.06478526       3.00781278      12.31028161       0.00000000      -1.02528454       0.68589736      -0.71401700      -1.02528454       0.68589736      -0.71401700
H        1.30943638       3.59081732      10.99093511       0.00000000       0.78883508       0.10096723       1.27945148       0.78883508       0.10096723       1.27945148
O       13.53308267       3.00737348       4.43438517       0.00000000      -0.07927432       0.14621453      -0.81871953      -0.07927432       0.14621453      -0.81871953
H       13.16643072       3.79519309       4.94667991       0.00000000       0.18212102      -0.87351694      -1.22375727       0.18212102      -0.87351694      -1.22375727
H       13.34198724       3.02412935       3.43118532       0.00000000      -0.13239742       0.10431738       2.23034217      -0.13239742       0.10431738       2.23034217
O       10.34136520      12.72173627       0.63105318       0.00000000       0.07324816       2.15992993      -1.21727191       0.07324816       2.15992993      -1.21727191
H       10.36058225      13.48414789       1.31912848       0.00000000       0.47131050      -1.83930152      -1.28633843       0.47131050      -1.83930152      -1.28633843
H       10.53593863      13.20037370      13.99457322       0.00000000      -0.63583386      -0.80671093       2.48224602      -0.63583386      -0.80671093       2.48224602
O        7.58751160      13.28981804       3.41099576       0.00000000       0.12580974       0.12780801      -0.95360115       0.12580974       0.12780801      -0.95360115
H        7.14319274      12.67430411       2.69511065       0.00000000       1.13622559       1.49427179       0.48141699       1.13622559       1.49427179       0.48141699
H        8.00075312      14.16944654       3.07900305       0.00000000      -1.55957679      -1.44983850      -0.06296684      -1.55957679      -1.44983850      -0.06296684
O        3.30356194      10.38874496       9.19796177       0.00000000       1.20986302      -1.32776868      -2.31137564       1.20986302      -1.32776868      -2.31137564
H        3.82892742       9.69804566       8.59315153       0.00000000      -1.48896966       1.78081663       1.98742844      -1.48896966       1.78081663       1.98742844
H        3.02447968      11.05261463       8.51711526       0.00000000       0.10774826      -0.30357274       0.67343059       0.10774826      -0.30357274       0.67343059
O       10.83998493       0.36343638       2.41308549       0.00000000      -0.80352328       1.64249076       2.28616185      -0.80352328       1.64249076       2.28616185
H       11.35660055       0.58039007       3.25589952       0.00000000      -1.32643068      -0.68191523      -2.07849332      -1.32643068      -0.68191523      -2.07849332
H        9.88928485       0.73495372       2.55313886       0.00000000       2.09620257      -0.33892336      -0.37503913       2.09620257      -0.33892336      -0.37503913
O       10.87963107      10.46768972       7.08232754       0.00000000      -0.87770784       2.14697569      -0.84639745      -0.87770784       2.14697569      -0.84639745
H       10.30756957      11.28785103       7.34162416       0.00000000       1.82934981      -2.31640883      -0.95892796       1.82934981      -2.31640883      -0.95892796
H       11.39221596      10.60851347       6.23422905       0.00000000      -0.76981971       0.48619204       1.34904045      -0.76981971       0.48619204       1.34904045
O        4.39812951       6.24875750      14.08334478       0.00000000       3.25551256      -2.02217793      -0.60031715       3.25551256      -2.02217793      -0.60031715
H        5.25244846       6.19312561       0.39675683       0.00000000      -2.84581186       0.47032885      -1.94957049      -2.84581186       0.47032885      -1.94957049
H        4.57598992       5.62876826      13.22505186       0.00000000      -0.36411040       1.81153206       2.55703942      -0.36411040       1.81153206       2.55703942
O        8.06738686       9.95252015       5.25382028       0.00000000       0.33797308       2.00060329       0.67674526       0.33797308       2.00060329       0.67674526
H        7.32234895      10.60170129       5.68794682       0.00000000       2.29251659      -1.30184270      -1.52926605       2.29251659      -1.30184270      -1.52926605
H        8.91974742      10.51557003       5.07724244       0.00000000      -2.54482719      -1.05377339       0.43347106      -2.54482719      -1.05377339       0.43347106
O        1.55235260      11.09812295      11.22172025       0.00000000       0.13865806       0.82056712      -0.26167096       0.13865806       0.82056712      -0.26167096
H        2.05336052      10.59466867      10.51290587       0.00000000      -0.75579229       1.19050776       0.61419443      -0.75579229       1.19050776       0.61419443
H        1.52687140      12.09868954      11.10878712       0.00000000       0.42237366      -1.92057564      -0.73591560       0.42237366      -1.92057564      -0.73591560
O        9.82892825      12.17389811       4.12162977       0.00000000      -1.42830294       1.91397407       0.37043429      -1.42830294       1.91397407       0.37043429
H       10.15332819      12.82873592       4.84909422       0.00000000      -0.67402092      -1.52709141      -1.83784987      -0.67402092      -1.52709141      -1.83784987
H        8.93845635      12.67169356       3.67026558       0.00000000       2.33465595      -1.75396866       1.62484682       2.33465595      -1.75396866       1.62484682
O        0.48895618       6.43280189       5.50663881       0.00000000      -1.95616742       0.52771125       0.73367617      -1.95616742       0.52771125       0.73367617
H       13.85953338       5.99626414       5.44835562       0.00000000       2.03809306       0.93666684       0.42682578       2.03809306       0.93666684       0.42682578
H        0.34227609       7.32908448       5.91842148       0.00000000       0.13321606      -1.72813061      -0.77793771       0.13321606      -1.72813061      -0.77793771
O       13.15522466       0.44271663       6.52145168       0.00000000      -0.86861796       1.26395749      -0.19528353      -0.86861796       1.26395749      -0.19528353
H       13.83456402       0.19589549       5.85778840       0.00000000      -0.69318541       0.78597395       0.49364876      -0.69318541       0.78597395       0.49364876
H       12.70740724       1.34810866       6.36467166       0.00000000       1.77527642      -2.24538570      -0.16101843       1.77527642      -2.24538570      -0.16101843
O        5.12247774       1.76562783       6.97153892       0.00000000       0.22169236      -0.33865699      -1.49099878       0.22169236      -0.33865699      -1.49099878
H        5.35727229       2.73814442       7.05563380       0.00000000       0.17576063      -1.37568376       0.25507659       0.17576063      -1.37568376       0.25507659
H        5.09776799       1.75894276       5.94984475       0.00000000      -0.16268656      -0.32530422       2.51207288      -0.16268656      -0.32530422       2.51207288
O        1.93570510       1.04064017      12.42840368       0.00000000      -0.02842920      -0.56648195      -1.60245868      -0.02842920      -0.56648195      -1.60245868
H        1.79055420       0.58620274      11.50926736       0.00000000       0.02727272       0.37849984       2.82430818       0.02727272       0.37849984       2.82430818
H        2.05980561       0.36547746      13.12698131       0.00000000       0.28236526      -0.06208135      -0.88056999       0.28236526      -0.06208135      -0.88056999
O        6.34456762       4.09016334       9.96763997       0.00000000      -0.32114366      -0.22475454      -0.68631799      -0.32114366      -0.22475454      -0.68631799
H        5.78082068       4.40531564       9.17977406       0.00000000       1.61781896      -0.86087688       0.94069524       1.61781896      -0.86087688       0.94069524
H        6.93900326       3.26740999       9.88454137       0.00000000      -1.46721916       1.80135872      -0.43421616      -1.46721916       1.80135872      -0.43421616
O        9.03761903      12.54278819       8.02773173       0.00000000      -1.46569501       0.05490951       2.18770351      -1.46569501       0.05490951       2.18770351
H        8.58326150      11.85286522       8.62149884       0.00000000       0.98166320       1.62040292      -1.49791659       0.98166320       1.62040292      -1.49791659
H        8.93920731      13.39513454       8.54746406       0.00000000       0.42226156      -1.71883247      -0.73693016       0.42226156      -1.71883247      -0.73693016
O       12.14157869      11.09879303       9.95662803       0.00000000       1.88338360      -2.00687678       0.56162153       1.88338360      -2.00687678       0.56162153
H       13.01967767      11.03367489      10.50526156       0.00000000      -2.81753281      -0.17072332      -1.73481496      -2.81753281      -0.17072332      -1.73481496
H       11.93168928      10.11736978       9.62338433       0.00000000       0.73678360       2.48065862       0.87745433       0.73678360       2.48065862       0.87745433
O        5.85120354      14.26888882       9.08195119       0.00000000       1.45933358       1.59013229      -0.89132800       1.45933358       1.59013229      -0.89132800
H        5.72564517       0.47380495       8.21669143       0.00000000      -0.08505776      -0.66358892       1.19804829      -0.08505776      -0.66358892       1.19804829
H        6.58014945       0.51716492       9.53732448       0.00000000      -1.09705586      -1.10691759      -0.60652122      -1.09705586      -1.10691759      -0.60652122
O        6.37025609      13.29989182      12.68192070       0.00000000      -0.69251126      -1.19942074      -1.28505443      -0.69251126      -1.19942074      -1.28505443
H        5.61012571      13.36479562      11.97875006       0.00000000       1.71404148      -0.59910411       1.79811656       1.71404148      -0.59910411       1.79811656