299
Lattice="14.3 0.0 0.0 0.0 14.3 0.0 0.0 0.0 14.3" Properties=species:S:1:pos:R:3:initial_charges:R:1:rPBED3_forces:R:3:forces:R:3 rPBED3_energy=-48476.08660517978 energy=-48476.08660517978 pbc="T T T"
Ca       2.83038417       6.55396573       4.43196457       0.00000000      -1.36315580       0.57259912      -1.27557323      -1.36315580       0.57259912      -1.27557323
C        4.74769258       4.13102246       5.66536121       0.00000000      -1.99217573      -0.65180093      -1.46142543      -1.99217573      -0.65180093      -1.46142543
O        5.78093252       4.03364461       6.33006802       0.00000000       4.22689289       0.21241273       1.98092149       4.22689289       0.21241273       1.98092149
O        4.47145495       3.18042590       4.86017102       0.00000000      -0.81041743      -1.54252934      -2.20787381      -0.81041743      -1.54252934      -2.20787381
O        3.92391363       5.05451018       5.83560707       0.00000000      -0.55946129       0.22417964       0.82316754      -0.55946129       0.22417964       0.82316754
O       10.03400477       3.41411841       8.24707837       0.00000000       1.04273616       1.41619715       1.33995571       1.04273616       1.41619715       1.33995571
H       10.62174026       4.26696169       8.13492877       0.00000000      -0.97989428      -1.62015815       0.47839183      -0.97989428      -1.62015815       0.47839183
H       10.07061642       3.19698314       9.29556257       0.00000000      -0.02763885       0.54524206      -1.72564127      -0.02763885       0.54524206      -1.72564127
O        6.37136989      11.67523144       1.74182319       0.00000000      -0.56494237       0.67171104      -2.46368471      -0.56494237       0.67171104      -2.46368471
H        6.61145107      11.70640640       0.71131617       0.00000000      -0.66410571       0.04281607       2.76485450      -0.66410571       0.04281607       2.76485450
H        5.44804087      12.17069312       1.86277405       0.00000000       0.92293509      -0.69079839      -0.53686078       0.92293509      -0.69079839      -0.53686078
O        2.99561693      13.32874216       4.87516553       0.00000000      -0.68503346       0.73323085      -0.66452892      -0.68503346       0.73323085      -0.66452892
H        2.02070763      13.65965915       4.79740099       0.00000000       1.68421205      -0.04943769      -0.26848901       1.68421205      -0.04943769      -0.26848901
H        3.57861432      13.89568708       4.25703583       0.00000000      -1.28278311      -0.35772892       1.28487085      -1.28278311      -0.35772892       1.28487085
O        3.26630948       7.24381976       6.53068009       0.00000000       1.02767670       0.73186714       2.68333870       1.02767670       0.73186714       2.68333870
H        3.87848946       8.00238945       6.87407354       0.00000000      -1.26856440      -1.48608128      -0.47523812      -1.26856440      -1.48608128      -0.47523812
H        3.44417789       6.37565478       7.07866463       0.00000000      -0.23047988       2.77765757      -1.02883112      -0.23047988       2.77765757      -1.02883112
O       11.22179778       8.62538503       8.85538973       0.00000000      -1.67683144       0.26916675       0.46835733      -1.67683144       0.26916675       0.46835733
H       11.13446695       9.22285093       8.01702570       0.00000000      -0.24282220      -0.39147568       1.01824795      -0.24282220      -0.39147568       1.01824795
H       10.28754574       8.71583698       9.37322224       0.00000000       1.75576174       0.19901368      -1.34340767       1.75576174       0.19901368      -1.34340767
O       10.58818309      13.81039870       6.10752005       0.00000000       0.04109754      -0.68675713       0.58896007       0.04109754      -0.68675713       0.58896007
H       11.57915913      13.77897426       6.20476017       0.00000000      -0.29814257       0.17760154       0.12848215      -0.29814257       0.17760154       0.12848215
H       10.18627544      13.20157908       6.80207120       0.00000000       0.34519171       0.72593663      -0.55586226       0.34519171       0.72593663      -0.55586226
O        0.47424709      10.02792138       6.79658681       0.00000000       1.10370576       1.01495848      -0.98653904       1.10370576       1.01495848      -0.98653904
H       13.99305983      10.40536873       6.24356702       0.00000000       1.22115428       0.09372340       0.47457580       1.22115428       0.09372340       0.47457580
H        1.31756364      10.63486301       6.77758372       0.00000000      -2.20712511      -0.78837588      -0.02991993      -2.20712511      -0.78837588      -0.02991993
O        7.11913995       1.24594078      14.10632673       0.00000000      -0.43450464      -1.40853372      -0.36104359      -0.43450464      -1.40853372      -0.36104359
H        6.23503700       1.66508381      13.84249762       0.00000000       0.76931578      -0.65601239      -0.04461636       0.76931578      -0.65601239      -0.04461636
H        7.04423155       0.24586496      13.74948602       0.00000000      -0.26669387       2.02521183       0.22943961      -0.26669387       2.02521183       0.22943961
O        9.63221700       4.06389853       1.50967294       0.00000000       0.85644893      -0.72315367       1.79305663       0.85644893      -0.72315367       1.79305663
H       10.49432287       4.58956331       1.72409647       0.00000000      -1.05540553      -0.37739375      -0.49839347      -1.05540553      -0.37739375      -0.49839347
H        9.42900733       3.53926084       2.37439617       0.00000000       0.24700744       1.07726659      -2.13531471       0.24700744       1.07726659      -2.13531471
O        7.15476393       6.99269225       1.40327037       0.00000000      -0.25003929      -1.32984459       0.29298288      -0.25003929      -1.32984459       0.29298288
H        6.88523436       7.84071238       1.84546397       0.00000000       0.13006903      -0.02251361       0.22541274       0.13006903      -0.02251361       0.22541274
H        7.16146536       6.27029923       2.14556987       0.00000000       0.41853346       1.04336300      -0.83856896       0.41853346       1.04336300      -0.83856896
O        9.95763853       8.14484204       0.56541861       0.00000000      -1.22345079      -0.64276195       0.77680077      -1.22345079      -0.64276195       0.77680077
H        9.15380355       7.83446930       1.13578011       0.00000000       1.50077874       0.21016096      -1.12361536       1.50077874       0.21016096      -1.12361536
H       10.15053611       7.37870128      14.25598172       0.00000000      -0.49406219       0.47563664       0.69510191      -0.49406219       0.47563664       0.69510191
O       13.38121525       1.25075241      13.35067120       0.00000000       1.08029124       0.13948030      -0.29824182       1.08029124       0.13948030      -0.29824182
H        0.12402198       1.14133077      13.40451688       0.00000000      -2.66763234       0.40301171      -0.73240090      -2.66763234       0.40301171      -0.73240090
H       13.12353423       1.62658577      12.41838427       0.00000000       1.24889031      -0.63194069       1.06915116       1.24889031      -0.63194069       1.06915116
O        2.02736692       4.17451008       4.33192647       0.00000000      -0.99600790      -2.00271108       0.32512116      -0.99600790      -2.00271108       0.32512116
H        2.90448079       3.75148779       4.62109247       0.00000000      -0.85075805      -0.32384847      -0.76266073      -0.85075805      -0.32384847      -0.76266073
H        1.30077267       3.44346272       4.23350203       0.00000000       1.34725662       1.77975117       0.28272727       1.34725662       1.77975117       0.28272727
O       12.56442942      11.34976360       0.85731002       0.00000000      -0.71618341      -0.02806874      -1.72714228      -0.71618341      -0.02806874      -1.72714228
H       12.89042019      11.15902607      14.20408789       0.00000000      -0.00972854       0.15455776       1.42444011      -0.00972854       0.15455776       1.42444011
H       11.70517552      11.92094158       0.69339971       0.00000000       0.64318516      -0.43924267       0.65344643       0.64318516      -0.43924267       0.65344643
O        3.79375982      10.81787380       5.08084039       0.00000000      -0.49610673       0.06488488      -0.16892509      -0.49610673       0.06488488      -0.16892509
H        3.52928687      11.74628644       4.81339670       0.00000000       0.59963735      -0.63013732       0.59391356       0.59963735      -0.63013732       0.59391356
H        4.66661742      10.82942353       5.53415238       0.00000000      -0.39852256       0.25039873      -0.34629574      -0.39852256       0.25039873      -0.34629574
O        4.55441339       4.60750637      11.98565021       0.00000000      -0.22940464      -0.37009644      -0.87126465      -0.22940464      -0.37009644      -0.87126465
H        5.17932419       4.49179360      11.18131539       0.00000000      -0.40916847      -0.15903200       0.70330064      -0.40916847      -0.15903200       0.70330064
H        3.60654957       4.53778545      11.66606959       0.00000000       0.38096501       0.22806510       0.09887075       0.38096501       0.22806510       0.09887075
O        5.16868079       9.25254541       7.43522792       0.00000000       2.46620028      -0.68553277       0.60637261       2.46620028      -0.68553277       0.60637261
H        5.98267301       8.52708600       7.54454529       0.00000000      -2.18862345       1.88927194      -0.25451455      -2.18862345       1.88927194      -0.25451455
H        5.55257446      10.08615969       7.89043002       0.00000000      -0.50621323      -0.95188417      -0.57844015      -0.50621323      -0.95188417      -0.57844015
O        7.95516381      11.31814890      11.50431870       0.00000000       0.98856867      -0.76550643       1.07825081       0.98856867      -0.76550643       1.07825081
H        8.76625792      11.77762456      11.07552637       0.00000000      -0.61783305      -0.21204558       1.04617630      -0.61783305      -0.21204558       1.04617630
H        8.33001147      10.80251338      12.36560701       0.00000000      -0.46358022       1.16660781      -1.73252000      -0.46358022       1.16660781      -1.73252000
O       13.03517700       2.87777357       1.77110481       0.00000000      -1.20242533      -0.04399723      -0.59203563      -1.20242533      -0.04399723      -0.59203563
H       12.51180155       2.32343776       1.08761834       0.00000000       1.12501610       0.92872624       1.22949288       1.12501610       0.92872624       1.22949288
H       12.55178769       3.76899682       1.89942163       0.00000000       0.42796581      -0.64555983      -0.83955935       0.42796581      -0.64555983      -0.83955935
O        1.12350070      13.66762287      10.25953582       0.00000000      -0.24799372       1.81246537      -0.94299226      -0.24799372       1.81246537      -0.94299226
H        0.08842764      13.73857671      10.09032327       0.00000000       1.84239559      -0.00766343      -0.09945696       1.84239559      -0.00766343      -0.09945696
H        1.60137489       0.07409276       9.67035723       0.00000000      -1.01046830      -1.47875107       0.76447336      -1.01046830      -1.47875107       0.76447336
O       13.70372455      10.56034637      12.66810913       0.00000000      -1.09003829      -1.31550555      -0.15483956      -1.09003829      -1.31550555      -0.15483956
H        0.10184507      10.70046190      11.94128091       0.00000000      -0.12659136      -0.55382800       0.06401482      -0.12659136      -0.55382800       0.06401482
H       13.07540016       9.72870082      12.52059159       0.00000000       1.16047624       1.96558229      -0.26100967       1.16047624       1.96558229      -0.26100967
O        3.98349328      12.94505676       1.92196873       0.00000000      -0.72909652       1.03401704       1.28728871      -0.72909652       1.03401704       1.28728871
H        3.47573184      12.96127681       1.05992886       0.00000000       0.34078638       0.17492502      -0.41671003       0.34078638       0.17492502      -0.41671003
H        3.63740527      13.72639339       2.48485241       0.00000000       0.89844379      -1.32881820      -1.31179956       0.89844379      -1.32881820      -1.31179956
O        3.39469478       7.16469189       9.89564153       0.00000000       2.82291362      -0.12980010      -0.19259672       2.82291362      -0.12980010      -0.19259672
H        4.25307988       7.60069243      10.33148255       0.00000000      -1.80940782      -1.02028683      -1.15811905      -1.80940782      -1.02028683      -1.15811905
H        3.74260385       6.54094087       9.15094410       0.00000000      -0.40884760       1.04097084       1.34702110      -0.40884760       1.04097084       1.34702110
O        4.88670768       5.67834147       8.05553937       0.00000000      -0.06181601      -0.38296636       1.33034853      -0.06181601      -0.38296636       1.33034853
H        5.54019440       6.40984345       7.92780204       0.00000000      -0.02292344      -0.09105254       0.18047654      -0.02292344      -0.09105254       0.18047654
H        4.79431869       5.20655277       7.16840552       0.00000000       0.17523921       1.09694479       0.72799043       0.17523921       1.09694479       0.72799043
O        4.26681097      13.07496899      10.90464664       0.00000000      -0.28206187      -1.28507962      -0.63570685      -0.28206187      -1.28507962      -0.63570685
H        3.91420512      12.11953041      10.67811851       0.00000000       1.10719527       2.22141273      -0.09972744       1.10719527       2.22141273      -0.09972744
H        4.82340539      13.49573456      10.14887550       0.00000000      -1.05527492      -0.80766995       0.49710638      -1.05527492      -0.80766995       0.49710638
O        6.36959570      11.87436229       5.54866460       0.00000000       0.12071536       1.72598631       0.64514023       0.12071536       1.72598631       0.64514023
H        6.65158878      12.43151616       4.70239389       0.00000000      -0.15847561      -0.46449965       2.22006136      -0.15847561      -0.46449965       2.22006136
H        6.36757447      12.41663578       6.42699633       0.00000000       0.22676515      -0.79314425      -2.31176130       0.22676515      -0.79314425      -2.31176130
O        7.52152293       1.62266033      10.46850251       0.00000000       0.66411445      -0.06218573       0.54421671       0.66411445      -0.06218573       0.54421671
H        8.35654928       1.45856028      11.00270474       0.00000000      -0.88065278       0.23849452      -0.65962479      -0.88065278       0.23849452      -0.65962479
H        6.79816808       1.74823111      11.12073872       0.00000000       0.09675165      -0.12121775       0.43410972       0.09675165      -0.12121775       0.43410972
O        8.76930927       5.87132511      13.77687881       0.00000000      -2.03711964       0.01005713       1.11729302      -2.03711964       0.01005713       1.11729302
H        7.93607279       6.23001700       0.04562551       0.00000000       2.02398233      -0.38461084      -0.84708908       2.02398233      -0.38461084      -0.84708908
H        8.95406773       5.01108679      14.25017090       0.00000000      -0.11364328       0.68049547      -0.25192751      -0.11364328       0.68049547      -0.25192751
O        1.36497520       7.44251950      11.38458419       0.00000000      -2.78739023       0.50191794      -0.62355838      -2.78739023       0.50191794      -0.62355838
H        0.65783430       7.95976261      10.79064091       0.00000000       2.54569982      -0.86085991       0.83394714       2.54569982      -0.86085991       0.83394714
H        2.20507449       7.18105960      10.88654701       0.00000000      -0.49011555       0.63954293      -0.60972276      -0.49011555       0.63954293      -0.60972276
O        2.60678750       0.94237400       8.03049683       0.00000000      -0.11053533       1.20583822       0.07626355      -0.11053533       1.20583822       0.07626355
H        2.09253094       1.84852868       7.87049969       0.00000000       2.29395384      -2.18802490      -0.09444794       2.29395384      -2.18802490      -0.09444794
H        3.62699075       1.00200241       7.82507177       0.00000000      -2.31191145       0.84448301       0.01549450      -2.31191145       0.84448301       0.01549450
O        4.91865791       5.62755107       3.67126971       0.00000000       1.58176644       0.20885330      -1.03042469       1.58176644       0.20885330      -1.03042469
H        4.75904136       4.61453254       3.72279971       0.00000000       1.43629084       1.77711476      -0.52227851       1.43629084       1.77711476      -0.52227851
H        5.90491910       6.00137659       3.72059321       0.00000000      -2.27567689      -2.09109276      -0.20714763      -2.27567689      -2.09109276      -0.20714763
O       11.40211666       7.35809668       4.32804525       0.00000000      -1.35700161       0.68197539      -0.53672657      -1.35700161       0.68197539      -0.53672657
H       10.43827111       7.24186474       4.67301591       0.00000000       1.06429435       0.48046003      -0.55865139       1.06429435       0.48046003      -0.55865139
H       11.37720749       8.21527078       3.74676565       0.00000000       0.07745140      -1.12010118       0.88056947       0.07745140      -1.12010118       0.88056947
O        7.75138219       5.42657307       3.47604907       0.00000000       0.14804979       0.58452389       0.90013814       0.14804979       0.58452389       0.90013814
H        7.55940439       4.53405460       3.90575598       0.00000000       0.48056133       0.63901791      -0.16613904       0.48056133       0.63901791      -0.16613904
H        8.21345126       6.11446834       4.11658934       0.00000000      -0.74646381      -1.11891590      -0.79450385      -0.74646381      -1.11891590      -0.79450385
O        0.73110935       0.25825477       4.07155142       0.00000000      -1.66763975       1.36542609      -0.72733686      -1.66763975       1.36542609      -0.72733686
H        0.58477377      14.02508612       3.20110190       0.00000000      -0.52147170       0.32961596       1.29988352      -0.52147170       0.32961596       1.29988352
H       14.28797278       0.99263853       4.19641056       0.00000000       1.85589182      -1.54599776      -0.74676103       1.85589182      -1.54599776      -0.74676103
O        2.06127235       6.45750908       2.14551453       0.00000000      -0.59368062       1.20129971      -2.63005156      -0.59368062       1.20129971      -2.63005156
H        2.03714726       7.15491882       1.32668955       0.00000000       0.14227355      -2.21459365       2.18898700       0.14227355      -2.21459365       2.18898700
H        1.75382244       5.54830847       1.79531236       0.00000000       0.50232726       1.12918591       0.51704271       0.50232726       1.12918591       0.51704271
O       12.83002378       7.04362106      13.95749198       0.00000000       1.13696144      -0.26282487      -0.30969043       1.13696144      -0.26282487      -0.30969043
H       13.65653438       6.40225681      13.85046746       0.00000000      -0.62727054       0.70553647      -0.35941505      -0.62727054       0.70553647      -0.35941505
H       13.11107536       7.90509169      13.52489905       0.00000000      -0.55586946      -1.11405651       0.73728806      -0.55586946      -1.11405651       0.73728806
O        1.70504530       3.83558797      11.89277351       0.00000000       0.86418332      -0.26922229      -0.24509146       0.86418332      -0.26922229      -0.24509146
H        2.06478526       3.00781278      12.31028161       0.00000000      -0.68334888       0.03823488      -0.34914041      -0.68334888       0.03823488      -0.34914041
H        1.30943638       3.59081732      10.99093511       0.00000000       0.47732071      -0.04879286       0.55951168       0.47732071      -0.04879286       0.55951168
O       13.53308267       3.00737348       4.43438517       0.00000000       0.27653914      -0.41687458      -0.46969070       0.27653914      -0.41687458      -0.46969070
H       13.16643072       3.79519309       4.94667991       0.00000000      -0.09235506      -0.24879590      -0.75598615      -0.09235506      -0.24879590      -0.75598615
H       13.34198724       3.02412935       3.43118532       0.00000000      -0.24247664       0.04454437       1.41769559      -0.24247664       0.04454437       1.41769559
O       10.34136520      12.72173627       0.63105318       0.00000000      -0.08040714       1.26014095      -1.06713131      -0.08040714       1.26014095      -1.06713131
H       10.36058225      13.48414789       1.31912848       0.00000000       0.46873271      -1.25596033      -0.73805990       0.46873271      -1.25596033      -0.73805990
H       10.53593863      13.20037370      13.99457322       0.00000000      -0.49790908      -0.49867167       1.82453105      -0.49790908      -0.49867167       1.82453105
O        7.58751160      13.28981804       3.41099576       0.00000000       0.08039737      -0.05938786      -0.26656840       0.08039737      -0.05938786      -0.26656840
H        7.14319274      12.67430411       2.69511065       0.00000000       0.80725703       1.01172249       0.02807593       0.80725703       1.01172249       0.02807593
H        8.00075312      14.16944654       3.07900305       0.00000000      -1.20370472      -0.75578097      -0.25594665      -1.20370472      -0.75578097      -0.25594665
O        3.30356194      10.38874496       9.19796177       0.00000000       1.08193932      -1.43236374      -1.29260678       1.08193932      -1.43236374      -1.29260678
H        3.82892742       9.69804566       8.59315153       0.00000000      -1.09591532       1.27028549       1.56414821      -1.09591532       1.27028549       1.56414821
H        3.02447968      11.05261463       8.51711526       0.00000000      -0.12686081       0.28704775       0.07293963      -0.12686081       0.28704775       0.07293963
O       10.83998493       0.36343638       2.41308549       0.00000000      -0.46905204       1.18410982       1.51382555      -0.46905204       1.18410982       1.51382555
H       11.35660055       0.58039007       3.25589952       0.00000000      -0.89419015      -0.51344523      -1.39501846      -0.89419015      -0.51344523      -1.39501846
H        9.88928485       0.73495372       2.55313886       0.00000000       1.33391310      -0.07195490      -0.26703479       1.33391310      -0.07195490      -0.26703479
O       10.87963107      10.46768972       7.08232754       0.00000000      -0.87996167       1.43356084      -0.35979558      -0.87996167       1.43356084      -0.35979558
H       10.30756957      11.28785103       7.34162416       0.00000000       1.41143804      -1.71103894      -0.74563540       1.41143804      -1.71103894      -0.74563540
H       11.39221596      10.60851347       6.23422905       0.00000000      -0.34275996       0.56757312       0.64026747      -0.34275996       0.56757312       0.64026747
O        4.39812951       6.24875750      14.08334478       0.00000000       2.48901060      -1.54382518      -0.42995687       2.48901060      -1.54382518      -0.42995687
H        5.25244846       6.19312561       0.39675683       0.00000000      -2.20952549       0.43267659      -1.49480658      -2.20952549       0.43267659      -1.49480658
H        4.57598992       5.62876826      13.22505186       0.00000000      -0.25162000       1.39146879       1.95361535      -0.25162000       1.39146879       1.95361535
O        8.06738686       9.95252015       5.25382028       0.00000000       0.19732344       1.17955023       0.56329532       0.19732344       1.17955023       0.56329532
H        7.32234895      10.60170129       5.68794682       0.00000000       1.76576282      -0.88945778      -1.23162638       1.76576282      -0.88945778      -1.23162638
H        8.91974742      10.51557003       5.07724244       0.00000000      -1.84537704      -0.62366226       0.28384570      -1.84537704      -0.62366226       0.28384570
O        1.55235260      11.09812295      11.22172025       0.00000000      -0.19650326       0.44744912       0.29738718      -0.19650326       0.44744912       0.29738718
H        2.05336052      10.59466867      10.51290587       0.00000000      -0.36509770       0.75537834       0.07498829      -0.36509770       0.75537834       0.07498829
H        1.52687140      12.09868954      11.10878712       0.00000000       0.36774337      -1.12591753      -0.75455816       0.36774337      -1.12591753      -0.75455816
O        9.82892825      12.17389811       4.12162977       0.00000000      -1.15099298       1.12324769       0.03375087      -1.15099298       1.12324769       0.03375087
H       10.15332819      12.82873592       4.84909422       0.00000000      -0.39756354      -1.02281680      -1.24023701      -0.39756354      -1.02281680      -1.24023701
H        8.93845635      12.67169356       3.67026558       0.00000000       1.81000328      -1.46096520       1.33432654       1.81000328      -1.46096520       1.33432654
O        0.48895618       6.43280189       5.50663881       0.00000000      -1.16234955       0.13801631       0.45925819      -1.16234955       0.13801631       0.45925819
H       13.85953338       5.99626414       5.44835562       0.00000000       1.32441030       0.58882638       0.35448059       1.32441030       0.58882638       0.35448059
H        0.34227609       7.32908448       5.91842148       0.00000000       0.02557271      -0.98226278      -0.44345157       0.02557271      -0.98226278      -0.44345157
O       13.15522466       0.44271663       6.52145168       0.00000000      -1.08959761       0.87446053       0.46769604      -1.08959761       0.87446053       0.46769604
H       13.83456402       0.19589549       5.85778840       0.00000000      -0.11196692       0.51635623      -0.08971300      -0.11196692       0.51635623      -0.08971300
H       12.70740724       1.34810866       6.36467166       0.00000000       1.40019769      -1.58041301      -0.25482668       1.40019769      -1.58041301      -0.25482668
O        5.12247774       1.76562783       6.97153892       0.00000000       0.05421017      -1.13947238      -0.74908428       0.05421017      -1.13947238      -0.74908428
H        5.35727229       2.73814442       7.05563380       0.00000000       0.34743885      -0.54962734       0.30537612       0.34743885      -0.54962734       0.30537612
H        5.09776799       1.75894276       5.94984475       0.00000000      -0.16708469      -0.31109939       1.69795254      -0.16708469      -0.31109939       1.69795254
O        1.93570510       1.04064017      12.42840368       0.00000000      -0.05193783       0.31776883      -1.52940540      -0.05193783       0.31776883      -1.52940540
H        1.79055420       0.58620274      11.50926736       0.00000000      -0.10172416       0.07785198       2.07918495      -0.10172416       0.07785198       2.07918495
H        2.05980561       0.36547746      13.12698131       0.00000000       0.40754662      -0.62517304      -0.21606781       0.40754662      -0.62517304      -0.21606781
O        6.34456762       4.09016334       9.96763997       0.00000000      -0.26696229       0.10055688      -0.12266888      -0.26696229       0.10055688      -0.12266888
H        5.78082068       4.40531564       9.17977406       0.00000000       1.12716194      -0.55507088       0.35150891       1.12716194      -0.55507088       0.35150891
H        6.93900326       3.26740999       9.88454137       0.00000000      -0.99465293       1.17537424      -0.41555509      -0.99465293       1.17537424      -0.41555509
O        9.03761903      12.54278819       8.02773173       0.00000000      -1.05584416      -0.07451623       1.33916535      -1.05584416      -0.07451623       1.33916535
H        8.58326150      11.85286522       8.62149884       0.00000000       0.60012998       1.06662943      -1.02347860       0.60012998       1.06662943      -1.02347860
H        8.93920731      13.39513454       8.54746406       0.00000000       0.34688298      -1.03207791      -0.32171753       0.34688298      -1.03207791      -0.32171753
O       12.14157869      11.09879303       9.95662803       0.00000000       1.38797466      -1.31499492       0.39577045       1.38797466      -1.31499492       0.39577045
H       13.01967767      11.03367489      10.50526156       0.00000000      -2.13926958      -0.18422778      -1.28491302      -2.13926958      -0.18422778      -1.28491302
H       11.93168928      10.11736978       9.62338433       0.00000000       0.55663565       1.78384436       0.60713058       0.55663565       1.78384436       0.60713058
O        5.85120354      14.26888882       9.08195119       0.00000000       0.97864267       0.77995911      -0.54779979       0.97864267       0.77995911      -0.54779979
H        5.72564517       0.47380495       8.21669143       0.00000000      -0.18894164      -0.28333867       0.49842227      -0.18894164      -0.28333867       0.49842227
H        6.58014945       0.51716492       9.53732448       0.00000000      -0.53593210      -0.70373721      -0.24087382      -0.53593210      -0.70373721      -0.24087382
O        6.37025609      13.29989182      12.68192070       0.00000000      -0.51233245      -0.56307421      -0.60270931      -0.51233245      -0.56307421      -0.60270931
H        5.61012571      13.36479562      11.97875006       0.00000000       1.11552616      -0.52748139       1.26410868       1.11552616      -0.52748139       1.26410868